  12  12   1   0
  0.3973299E+02  0.3342886E-09  0.3260241E-08  0.4374831E-09  0.5000000E-15
  1.000000000000000E-004
  CAR 
 Generic Input                           
      5.85276739    -15.84173048 2000      0.93779643      1.00000000
    -15.842  0.0000E+00  0.0000E+00
    -15.831  0.0000E+00  0.0000E+00
    -15.820  0.0000E+00  0.0000E+00
    -15.809  0.0000E+00  0.0000E+00
    -15.798  0.0000E+00  0.0000E+00
    -15.787  0.0000E+00  0.0000E+00
    -15.777  0.0000E+00  0.0000E+00
    -15.766  0.0000E+00  0.0000E+00
    -15.755  0.0000E+00  0.0000E+00
    -15.744  0.0000E+00  0.0000E+00
    -15.733  0.0000E+00  0.0000E+00
    -15.722  0.0000E+00  0.0000E+00
    -15.711  0.0000E+00  0.0000E+00
    -15.701  0.0000E+00  0.0000E+00
    -15.690  0.0000E+00  0.0000E+00
    -15.679  0.0000E+00  0.0000E+00
    -15.668  0.0000E+00  0.0000E+00
    -15.657  0.0000E+00  0.0000E+00
    -15.646  0.0000E+00  0.0000E+00
    -15.636  0.0000E+00  0.0000E+00
    -15.625  0.0000E+00  0.0000E+00
    -15.614  0.0000E+00  0.0000E+00
    -15.603  0.0000E+00  0.0000E+00
    -15.592  0.0000E+00  0.0000E+00
    -15.581  0.0000E+00  0.0000E+00
    -15.570  0.0000E+00  0.0000E+00
    -15.560  0.0000E+00  0.0000E+00
    -15.549  0.0000E+00  0.0000E+00
    -15.538  0.0000E+00  0.0000E+00
    -15.527  0.0000E+00  0.0000E+00
    -15.516  0.0000E+00  0.0000E+00
    -15.505  0.0000E+00  0.0000E+00
    -15.494  0.0000E+00  0.0000E+00
    -15.484  0.0000E+00  0.0000E+00
    -15.473  0.0000E+00  0.0000E+00
    -15.462  0.0000E+00  0.0000E+00
    -15.451  0.0000E+00  0.0000E+00
    -15.440  0.0000E+00  0.0000E+00
    -15.429  0.0000E+00  0.0000E+00
    -15.418  0.0000E+00  0.0000E+00
    -15.408  0.0000E+00  0.0000E+00
    -15.397  0.0000E+00  0.0000E+00
    -15.386  0.0000E+00  0.0000E+00
    -15.375  0.0000E+00  0.0000E+00
    -15.364  0.0000E+00  0.0000E+00
    -15.353  0.0000E+00  0.0000E+00
    -15.343  0.0000E+00  0.0000E+00
    -15.332  0.0000E+00  0.0000E+00
    -15.321  0.0000E+00  0.0000E+00
    -15.310  0.0000E+00  0.0000E+00
    -15.299  0.0000E+00  0.0000E+00
    -15.288  0.0000E+00  0.0000E+00
    -15.277  0.0000E+00  0.0000E+00
    -15.267  0.0000E+00  0.0000E+00
    -15.256  0.0000E+00  0.0000E+00
    -15.245  0.0000E+00  0.0000E+00
    -15.234  0.0000E+00  0.0000E+00
    -15.223  0.0000E+00  0.0000E+00
    -15.212  0.0000E+00  0.0000E+00
    -15.201  0.0000E+00  0.0000E+00
    -15.191  0.0000E+00  0.0000E+00
    -15.180  0.0000E+00  0.0000E+00
    -15.169  0.0000E+00  0.0000E+00
    -15.158  0.0000E+00  0.0000E+00
    -15.147  0.0000E+00  0.0000E+00
    -15.136  0.0000E+00  0.0000E+00
    -15.125  0.0000E+00  0.0000E+00
    -15.115  0.0000E+00  0.0000E+00
    -15.104  0.0000E+00  0.0000E+00
    -15.093  0.0000E+00  0.0000E+00
    -15.082  0.0000E+00  0.0000E+00
    -15.071  0.0000E+00  0.0000E+00
    -15.060  0.0000E+00  0.0000E+00
    -15.049  0.0000E+00  0.0000E+00
    -15.039  0.0000E+00  0.0000E+00
    -15.028  0.0000E+00  0.0000E+00
    -15.017  0.0000E+00  0.0000E+00
    -15.006  0.0000E+00  0.0000E+00
    -14.995  0.0000E+00  0.0000E+00
    -14.984  0.0000E+00  0.0000E+00
    -14.974  0.0000E+00  0.0000E+00
    -14.963  0.0000E+00  0.0000E+00
    -14.952  0.0000E+00  0.0000E+00
    -14.941  0.0000E+00  0.0000E+00
    -14.930  0.0000E+00  0.0000E+00
    -14.919  0.0000E+00  0.0000E+00
    -14.908  0.3205E-12  0.3479E-14
    -14.898  0.1164E-07  0.1263E-09
    -14.887  0.4250E-04  0.4613E-06
    -14.876  0.1621E-01  0.1763E-03
    -14.865  0.6940E+00  0.7708E-02
    -14.854  0.3765E+01  0.4857E-01
    -14.843  0.2891E+01  0.7995E-01
    -14.832  0.3075E+00  0.8329E-01
    -14.822  0.3995E-02  0.8333E-01
    -14.811  0.5688E-05  0.8333E-01
    -14.800  0.8348E-09  0.8333E-01
    -14.789  0.1718E-12  0.8333E-01
    -14.778  0.6662E-08  0.8333E-01
    -14.767  0.2785E-04  0.8333E-01
    -14.756  0.1212E-01  0.8347E-01
    -14.746  0.5893E+00  0.8986E-01
    -14.735  0.3600E+01  0.1289E+00
    -14.724  0.3100E+01  0.1626E+00
    -14.713  0.3719E+00  0.1666E+00
    -14.702  0.5494E-02  0.1667E+00
    -14.691  0.1967E-02  0.1667E+00
    -14.680  0.1990E+00  0.1688E+00
    -14.670  0.2429E+01  0.1952E+00
    -14.659  0.4055E+01  0.2392E+00
    -14.648  0.9639E+00  0.2497E+00
    -14.637  0.2954E-01  0.2500E+00
    -14.626  0.1030E-03  0.2500E+00
    -14.615  0.3774E-07  0.2500E+00
    -14.605  0.1396E-11  0.2500E+00
    -14.594  0.0000E+00  0.2500E+00
    -14.583  0.5816E-11  0.2500E+00
    -14.572  0.1353E-06  0.2500E+00
    -14.561  0.3184E-03  0.2500E+00
    -14.550  0.7908E-01  0.2509E+00
    -14.539  0.2249E+01  0.2753E+00
    -14.529  0.8323E+01  0.3656E+00
    -14.518  0.4813E+01  0.4178E+00
    -14.507  0.5288E+01  0.4752E+00
    -14.496  0.8052E+01  0.5626E+00
    -14.485  0.1854E+01  0.5827E+00
    -14.474  0.5494E-01  0.5833E+00
    -14.463  0.1848E-03  0.5833E+00
    -14.453  0.2722E-06  0.5833E+00
    -14.442  0.4366E-03  0.5833E+00
    -14.431  0.9749E-01  0.5844E+00
    -14.420  0.2507E+01  0.6116E+00
    -14.409  0.8523E+01  0.7041E+00
    -14.398  0.6467E+01  0.7743E+00
    -14.387  0.8659E+01  0.8683E+00
    -14.377  0.4177E+01  0.9136E+00
    -14.366  0.3156E+00  0.9170E+00
    -14.355  0.1450E+01  0.9328E+00
    -14.344  0.8000E+01  0.1020E+01
    -14.333  0.1051E+02  0.1134E+01
    -14.322  0.8708E+01  0.1228E+01
    -14.312  0.1952E+01  0.1249E+01
    -14.301  0.6003E-01  0.1250E+01
    -14.290  0.2108E-03  0.1250E+01
    -14.279  0.7787E-07  0.1250E+01
    -14.268  0.2905E-11  0.1250E+01
    -14.257  0.0000E+00  0.1250E+01
    -14.246  0.0000E+00  0.1250E+01
    -14.236  0.2009E-10  0.1250E+01
    -14.225  0.4175E-06  0.1250E+01
    -14.214  0.8789E-03  0.1250E+01
    -14.203  0.1958E+00  0.1252E+01
    -14.192  0.5024E+01  0.1307E+01
    -14.181  0.1687E+02  0.1490E+01
    -14.170  0.8095E+01  0.1578E+01
    -14.160  0.5243E+00  0.1583E+01
    -14.149  0.4022E-02  0.1583E+01
    -14.138  0.3318E-05  0.1583E+01
    -14.127  0.2804E-09  0.1583E+01
    -14.116  0.3218E-07  0.1583E+01
    -14.105  0.1286E-03  0.1583E+01
    -14.094  0.5352E-01  0.1584E+01
    -14.084  0.2493E+01  0.1611E+01
    -14.073  0.1463E+02  0.1770E+01
    -14.062  0.1212E+02  0.1901E+01
    -14.051  0.1396E+01  0.1916E+01
    -14.040  0.2299E-01  0.1917E+01
    -14.029  0.4566E+00  0.1922E+01
    -14.018  0.7598E+01  0.2004E+01
    -14.008  0.1699E+02  0.2189E+01
    -13.997  0.5434E+01  0.2248E+01
    -13.986  0.2285E+00  0.2250E+01
    -13.975  0.1111E-02  0.2250E+01
    -13.964  0.5730E-06  0.2250E+01
    -13.953  0.2997E-10  0.2250E+01
    -13.943  0.0000E+00  0.2250E+01
    -13.932  0.0000E+00  0.2250E+01
    -13.921  0.0000E+00  0.2250E+01
    -13.910  0.0000E+00  0.2250E+01
    -13.899  0.0000E+00  0.2250E+01
    -13.888  0.0000E+00  0.2250E+01
    -13.877  0.0000E+00  0.2250E+01
    -13.867  0.0000E+00  0.2250E+01
    -13.856  0.0000E+00  0.2250E+01
    -13.845  0.0000E+00  0.2250E+01
    -13.834  0.0000E+00  0.2250E+01
    -13.823  0.0000E+00  0.2250E+01
    -13.812  0.0000E+00  0.2250E+01
    -13.801  0.0000E+00  0.2250E+01
    -13.791  0.0000E+00  0.2250E+01
    -13.780  0.0000E+00  0.2250E+01
    -13.769  0.0000E+00  0.2250E+01
    -13.758  0.0000E+00  0.2250E+01
    -13.747  0.0000E+00  0.2250E+01
    -13.736  0.0000E+00  0.2250E+01
    -13.725  0.0000E+00  0.2250E+01
    -13.715  0.0000E+00  0.2250E+01
    -13.704  0.0000E+00  0.2250E+01
    -13.693  0.0000E+00  0.2250E+01
    -13.682  0.0000E+00  0.2250E+01
    -13.671  0.0000E+00  0.2250E+01
    -13.660  0.0000E+00  0.2250E+01
    -13.649  0.0000E+00  0.2250E+01
    -13.639  0.0000E+00  0.2250E+01
    -13.628  0.4021E-10  0.2250E+01
    -13.617  0.6243E-06  0.2250E+01
    -13.606  0.9857E-03  0.2250E+01
    -13.595  0.1661E+00  0.2252E+01
    -13.584  0.3268E+01  0.2287E+01
    -13.574  0.8558E+01  0.2380E+01
    -13.563  0.3474E+01  0.2418E+01
    -13.552  0.4250E+01  0.2464E+01
    -13.541  0.8423E+01  0.2555E+01
    -13.530  0.2478E+01  0.2582E+01
    -13.519  0.9534E-01  0.2583E+01
    -13.508  0.5792E-03  0.2583E+01
    -13.498  0.4925E-01  0.2584E+01
    -13.487  0.1759E+01  0.2603E+01
    -13.476  0.8727E+01  0.2698E+01
    -13.465  0.1143E+02  0.2822E+01
    -13.454  0.7593E+01  0.2904E+01
    -13.443  0.1962E+01  0.2925E+01
    -13.432  0.6440E+01  0.2995E+01
    -13.422  0.7038E+01  0.3072E+01
    -13.411  0.2389E+01  0.3098E+01
    -13.400  0.7440E+01  0.3178E+01
    -13.389  0.5930E+01  0.3243E+01
    -13.378  0.6579E+00  0.3250E+01
    -13.367  0.8939E-02  0.3250E+01
    -13.356  0.1333E-04  0.3250E+01
    -13.346  0.2052E-08  0.3250E+01
    -13.335  0.3069E-13  0.3250E+01
    -13.324  0.0000E+00  0.3250E+01
    -13.313  0.1705E-14  0.3250E+01
    -13.302  0.1927E-09  0.3250E+01
    -13.291  0.2480E-05  0.3250E+01
    -13.280  0.3255E-02  0.3250E+01
    -13.270  0.4595E+00  0.3255E+01
    -13.259  0.7852E+01  0.3340E+01
    -13.248  0.2256E+02  0.3585E+01
    -13.237  0.2245E+02  0.3829E+01
    -13.226  0.7666E+01  0.3912E+01
    -13.215  0.4372E+00  0.3917E+01
    -13.205  0.3098E-02  0.3917E+01
    -13.194  0.4091E-01  0.3917E+01
    -13.183  0.2139E+01  0.3940E+01
    -13.172  0.1400E+02  0.4092E+01
    -13.161  0.1366E+02  0.4240E+01
    -13.150  0.1135E+02  0.4364E+01
    -13.139  0.1748E+02  0.4553E+01
    -13.129  0.1540E+02  0.4720E+01
    -13.118  0.1522E+02  0.4886E+01
    -13.107  0.3433E+01  0.4923E+01
    -13.096  0.8873E+01  0.5019E+01
    -13.085  0.1663E+02  0.5200E+01
    -13.074  0.4482E+01  0.5248E+01
    -13.063  0.1570E+00  0.5250E+01
    -13.053  0.6300E-03  0.5250E+01
    -13.042  0.2668E-06  0.5250E+01
    -13.031  0.1142E-10  0.5250E+01
    -13.020  0.0000E+00  0.5250E+01
    -13.009  0.0000E+00  0.5250E+01
    -12.998  0.0000E+00  0.5250E+01
    -12.987  0.0000E+00  0.5250E+01
    -12.977  0.0000E+00  0.5250E+01
    -12.966  0.0000E+00  0.5250E+01
    -12.955  0.0000E+00  0.5250E+01
    -12.944  0.0000E+00  0.5250E+01
    -12.933  0.0000E+00  0.5250E+01
    -12.922  0.0000E+00  0.5250E+01
    -12.912  0.0000E+00  0.5250E+01
    -12.901  0.0000E+00  0.5250E+01
    -12.890  0.0000E+00  0.5250E+01
    -12.879  0.0000E+00  0.5250E+01
    -12.868  0.0000E+00  0.5250E+01
    -12.857  0.0000E+00  0.5250E+01
    -12.846  0.0000E+00  0.5250E+01
    -12.836  0.0000E+00  0.5250E+01
    -12.825  0.0000E+00  0.5250E+01
    -12.814  0.0000E+00  0.5250E+01
    -12.803  0.0000E+00  0.5250E+01
    -12.792  0.0000E+00  0.5250E+01
    -12.781  0.0000E+00  0.5250E+01
    -12.770  0.0000E+00  0.5250E+01
    -12.760  0.0000E+00  0.5250E+01
    -12.749  0.0000E+00  0.5250E+01
    -12.738  0.0000E+00  0.5250E+01
    -12.727  0.0000E+00  0.5250E+01
    -12.716  0.0000E+00  0.5250E+01
    -12.705  0.0000E+00  0.5250E+01
    -12.694  0.0000E+00  0.5250E+01
    -12.684  0.0000E+00  0.5250E+01
    -12.673  0.0000E+00  0.5250E+01
    -12.662  0.0000E+00  0.5250E+01
    -12.651  0.1705E-12  0.5250E+01
    -12.640  0.8031E-08  0.5250E+01
    -12.629  0.3790E-04  0.5250E+01
    -12.618  0.1858E-01  0.5250E+01
    -12.608  0.1012E+01  0.5261E+01
    -12.597  0.6875E+01  0.5336E+01
    -12.586  0.6561E+01  0.5407E+01
    -12.575  0.8762E+00  0.5417E+01
    -12.564  0.1451E-01  0.5417E+01
    -12.553  0.2657E-04  0.5417E+01
    -12.543  0.5043E-08  0.5417E+01
    -12.532  0.9548E-13  0.5417E+01
    -12.521  0.3410E-14  0.5417E+01
    -12.510  0.3683E-09  0.5417E+01
    -12.499  0.3531E-05  0.5417E+01
    -12.488  0.3470E-02  0.5417E+01
    -12.477  0.3692E+00  0.5421E+01
    -12.467  0.4706E+01  0.5472E+01
    -12.456  0.8184E+01  0.5561E+01
    -12.445  0.2029E+01  0.5583E+01
    -12.434  0.6508E-01  0.5583E+01
    -12.423  0.2960E-01  0.5584E+01
    -12.412  0.1314E+01  0.5598E+01
    -12.401  0.7616E+01  0.5681E+01
    -12.391  0.1103E+02  0.5800E+01
    -12.380  0.1925E+02  0.6009E+01
    -12.369  0.1240E+02  0.6144E+01
    -12.358  0.2039E+01  0.6166E+01
    -12.347  0.7512E-01  0.6167E+01
    -12.336  0.8231E-01  0.6168E+01
    -12.325  0.3161E+01  0.6202E+01
    -12.315  0.1555E+02  0.6371E+01
    -12.304  0.1088E+02  0.6489E+01
    -12.293  0.2806E+01  0.6519E+01
    -12.282  0.1865E+02  0.6722E+01
    -12.271  0.3162E+02  0.7065E+01
    -12.260  0.9000E+01  0.7162E+01
    -12.249  0.3877E+00  0.7167E+01
    -12.239  0.2135E-02  0.7167E+01
    -12.228  0.1316E-05  0.7167E+01
    -12.217  0.8431E-10  0.7167E+01
    -12.206  0.2916E-12  0.7167E+01
    -12.195  0.1416E-07  0.7167E+01
    -12.184  0.6885E-04  0.7167E+01
    -12.174  0.3475E-01  0.7167E+01
    -12.163  0.1947E+01  0.7188E+01
    -12.152  0.1359E+02  0.7336E+01
    -12.141  0.1365E+02  0.7484E+01
    -12.130  0.4868E+01  0.7537E+01
    -12.119  0.3688E+01  0.7577E+01
    -12.108  0.1573E+01  0.7594E+01
    -12.098  0.1050E+02  0.7708E+01
    -12.087  0.1587E+02  0.7880E+01
    -12.076  0.5581E+01  0.7940E+01
    -12.065  0.8386E+01  0.8031E+01
    -12.054  0.4631E+01  0.8082E+01
    -12.043  0.3637E+01  0.8121E+01
    -12.032  0.8558E+01  0.8214E+01
    -12.022  0.3163E+01  0.8248E+01
    -12.011  0.1552E+00  0.8250E+01
    -12.000  0.8907E-03  0.8250E+01
    -11.989  0.2706E-02  0.8250E+01
    -11.978  0.3162E+00  0.8253E+01
    -11.967  0.4438E+01  0.8302E+01
    -11.956  0.9422E+01  0.8404E+01
    -11.946  0.6393E+01  0.8473E+01
    -11.935  0.2307E+01  0.8498E+01
    -11.924  0.7184E+00  0.8506E+01
    -11.913  0.5566E+01  0.8567E+01
    -11.902  0.7686E+01  0.8650E+01
    -11.891  0.1505E+01  0.8666E+01
    -11.881  0.4329E-01  0.8667E+01
    -11.870  0.6606E+00  0.8674E+01
    -11.859  0.8971E+01  0.8771E+01
    -11.848  0.1656E+02  0.8951E+01
    -11.837  0.4364E+01  0.8998E+01
    -11.826  0.1492E+00  0.9000E+01
    -11.815  0.1798E-01  0.9000E+01
    -11.805  0.9739E+00  0.9011E+01
    -11.794  0.6793E+01  0.9084E+01
    -11.783  0.6755E+01  0.9158E+01
    -11.772  0.4584E+01  0.9208E+01
    -11.761  0.1608E+02  0.9382E+01
    -11.750  0.1001E+02  0.9491E+01
    -11.739  0.1581E+01  0.9508E+01
    -11.729  0.9364E+01  0.9609E+01
    -11.718  0.1640E+02  0.9787E+01
    -11.707  0.4097E+01  0.9832E+01
    -11.696  0.1324E+00  0.9833E+01
    -11.685  0.4879E-03  0.9833E+01
    -11.674  0.1893E-06  0.9833E+01
    -11.663  0.5753E-10  0.9833E+01
    -11.653  0.7423E-06  0.9833E+01
    -11.642  0.1119E-02  0.9833E+01
    -11.631  0.1802E+00  0.9835E+01
    -11.620  0.3399E+01  0.9872E+01
    -11.609  0.8551E+01  0.9965E+01
    -11.598  0.3078E+01  0.9998E+01
    -11.587  0.1779E+00  0.1000E+02
    -11.577  0.1356E+01  0.1002E+02
    -11.566  0.7484E+01  0.1010E+02
    -11.555  0.5845E+01  0.1016E+02
    -11.544  0.6330E+00  0.1017E+02
    -11.533  0.4416E-01  0.1017E+02
    -11.522  0.1979E+01  0.1019E+02
    -11.512  0.1365E+02  0.1034E+02
    -11.501  0.1322E+02  0.1048E+02
    -11.490  0.1793E+01  0.1050E+02
    -11.479  0.3020E-01  0.1050E+02
    -11.468  0.3215E-03  0.1050E+02
    -11.457  0.8777E-01  0.1050E+02
    -11.446  0.3283E+01  0.1054E+02
    -11.436  0.1569E+02  0.1071E+02
    -11.425  0.1065E+02  0.1082E+02
    -11.414  0.9949E+00  0.1083E+02
    -11.403  0.1126E-01  0.1083E+02
    -11.392  0.1389E-04  0.1083E+02
    -11.381  0.3397E-08  0.1083E+02
    -11.370  0.1310E-04  0.1083E+02
    -11.360  0.1080E-01  0.1083E+02
    -11.349  0.9699E+00  0.1084E+02
    -11.338  0.1054E+02  0.1096E+02
    -11.327  0.1576E+02  0.1113E+02
    -11.316  0.4169E+01  0.1117E+02
    -11.305  0.9948E+01  0.1128E+02
    -11.294  0.1615E+02  0.1146E+02
    -11.284  0.3766E+01  0.1150E+02
    -11.273  0.1131E+00  0.1150E+02
    -11.262  0.3857E-03  0.1150E+02
    -11.251  0.1383E-06  0.1150E+02
    -11.240  0.5002E-11  0.1150E+02
    -11.229  0.0000E+00  0.1150E+02
    -11.218  0.0000E+00  0.1150E+02
    -11.208  0.0000E+00  0.1150E+02
    -11.197  0.0000E+00  0.1150E+02
    -11.186  0.0000E+00  0.1150E+02
    -11.175  0.0000E+00  0.1150E+02
    -11.164  0.0000E+00  0.1150E+02
    -11.153  0.0000E+00  0.1150E+02
    -11.143  0.0000E+00  0.1150E+02
    -11.132  0.0000E+00  0.1150E+02
    -11.121  0.0000E+00  0.1150E+02
    -11.110  0.0000E+00  0.1150E+02
    -11.099  0.0000E+00  0.1150E+02
    -11.088  0.1685E-11  0.1150E+02
    -11.077  0.5045E-07  0.1150E+02
    -11.067  0.1523E-03  0.1150E+02
    -11.056  0.4819E-01  0.1150E+02
    -11.045  0.1727E+01  0.1152E+02
    -11.034  0.7933E+01  0.1161E+02
    -11.023  0.5179E+01  0.1166E+02
    -11.012  0.4645E+00  0.1167E+02
    -11.001  0.5033E-02  0.1167E+02
    -10.991  0.5935E-05  0.1167E+02
    -10.980  0.7191E-09  0.1167E+02
    -10.969  0.8525E-14  0.1167E+02
    -10.958  0.0000E+00  0.1167E+02
    -10.947  0.0000E+00  0.1167E+02
    -10.936  0.0000E+00  0.1167E+02
    -10.925  0.0000E+00  0.1167E+02
    -10.915  0.0000E+00  0.1167E+02
    -10.904  0.0000E+00  0.1167E+02
    -10.893  0.0000E+00  0.1167E+02
    -10.882  0.0000E+00  0.1167E+02
    -10.871  0.0000E+00  0.1167E+02
    -10.860  0.0000E+00  0.1167E+02
    -10.849  0.8039E-12  0.1167E+02
    -10.839  0.2791E-07  0.1167E+02
    -10.828  0.9750E-04  0.1167E+02
    -10.817  0.3560E-01  0.1167E+02
    -10.806  0.1463E+01  0.1168E+02
    -10.795  0.7632E+01  0.1177E+02
    -10.784  0.5643E+01  0.1183E+02
    -10.774  0.5769E+00  0.1183E+02
    -10.763  0.7185E-02  0.1183E+02
    -10.752  0.9789E-05  0.1183E+02
    -10.741  0.1374E-08  0.1183E+02
    -10.730  0.2046E-13  0.1183E+02
    -10.719  0.0000E+00  0.1183E+02
    -10.708  0.0000E+00  0.1183E+02
    -10.698  0.0000E+00  0.1183E+02
    -10.687  0.0000E+00  0.1183E+02
    -10.676  0.1509E-12  0.1183E+02
    -10.665  0.7284E-08  0.1183E+02
    -10.654  0.3518E-04  0.1183E+02
    -10.643  0.1764E-01  0.1183E+02
    -10.632  0.9819E+00  0.1184E+02
    -10.622  0.6810E+01  0.1192E+02
    -10.611  0.6629E+01  0.1199E+02
    -10.600  0.9035E+00  0.1200E+02
    -10.589  0.1529E-01  0.1200E+02
    -10.578  0.2865E-04  0.1200E+02
    -10.567  0.5565E-08  0.1200E+02
    -10.556  0.1091E-12  0.1200E+02
    -10.546  0.0000E+00  0.1200E+02
    -10.535  0.0000E+00  0.1200E+02
    -10.524  0.0000E+00  0.1200E+02
    -10.513  0.0000E+00  0.1200E+02
    -10.502  0.0000E+00  0.1200E+02
    -10.491  0.0000E+00  0.1200E+02
    -10.481  0.0000E+00  0.1200E+02
    -10.470  0.0000E+00  0.1200E+02
    -10.459  0.0000E+00  0.1200E+02
    -10.448  0.0000E+00  0.1200E+02
    -10.437  0.0000E+00  0.1200E+02
    -10.426  0.0000E+00  0.1200E+02
    -10.415  0.0000E+00  0.1200E+02
    -10.405  0.0000E+00  0.1200E+02
    -10.394  0.0000E+00  0.1200E+02
    -10.383  0.0000E+00  0.1200E+02
    -10.372  0.0000E+00  0.1200E+02
    -10.361  0.0000E+00  0.1200E+02
    -10.350  0.0000E+00  0.1200E+02
    -10.339  0.0000E+00  0.1200E+02
    -10.329  0.0000E+00  0.1200E+02
    -10.318  0.0000E+00  0.1200E+02
    -10.307  0.0000E+00  0.1200E+02
    -10.296  0.3444E-12  0.1200E+02
    -10.285  0.1412E-07  0.1200E+02
    -10.274  0.5822E-04  0.1200E+02
    -10.263  0.2500E-01  0.1200E+02
    -10.253  0.1199E+01  0.1201E+02
    -10.242  0.7235E+01  0.1209E+02
    -10.231  0.6158E+01  0.1216E+02
    -10.220  0.7295E+00  0.1217E+02
    -10.209  0.1063E-01  0.1217E+02
    -10.198  0.2470E-04  0.1217E+02
    -10.187  0.6032E-02  0.1217E+02
    -10.177  0.5188E+00  0.1217E+02
    -10.166  0.5415E+01  0.1223E+02
    -10.155  0.7950E+01  0.1232E+02
    -10.144  0.4826E+01  0.1237E+02
    -10.133  0.8598E+01  0.1246E+02
    -10.122  0.3237E+01  0.1250E+02
    -10.112  0.1628E+00  0.1250E+02
    -10.101  0.9562E-03  0.1250E+02
    -10.090  0.5989E-06  0.1250E+02
    -10.079  0.3815E-10  0.1250E+02
    -10.068  0.0000E+00  0.1250E+02
    -10.057  0.0000E+00  0.1250E+02
    -10.046  0.0000E+00  0.1250E+02
    -10.036  0.0000E+00  0.1250E+02
    -10.025  0.0000E+00  0.1250E+02
    -10.014  0.0000E+00  0.1250E+02
    -10.003  0.0000E+00  0.1250E+02
     -9.992  0.0000E+00  0.1250E+02
     -9.981  0.0000E+00  0.1250E+02
     -9.970  0.0000E+00  0.1250E+02
     -9.960  0.0000E+00  0.1250E+02
     -9.949  0.0000E+00  0.1250E+02
     -9.938  0.0000E+00  0.1250E+02
     -9.927  0.0000E+00  0.1250E+02
     -9.916  0.0000E+00  0.1250E+02
     -9.905  0.0000E+00  0.1250E+02
     -9.894  0.0000E+00  0.1250E+02
     -9.884  0.0000E+00  0.1250E+02
     -9.873  0.0000E+00  0.1250E+02
     -9.862  0.0000E+00  0.1250E+02
     -9.851  0.0000E+00  0.1250E+02
     -9.840  0.0000E+00  0.1250E+02
     -9.829  0.0000E+00  0.1250E+02
     -9.818  0.0000E+00  0.1250E+02
     -9.808  0.2046E-13  0.1250E+02
     -9.797  0.1638E-08  0.1250E+02
     -9.786  0.1312E-04  0.1250E+02
     -9.775  0.1081E-01  0.1250E+02
     -9.764  0.9706E+00  0.1251E+02
     -9.753  0.1054E+02  0.1263E+02
     -9.743  0.1575E+02  0.1280E+02
     -9.732  0.3344E+01  0.1283E+02
     -9.721  0.9081E-01  0.1283E+02
     -9.710  0.2788E-03  0.1283E+02
     -9.699  0.8974E-07  0.1283E+02
     -9.688  0.2912E-11  0.1283E+02
     -9.677  0.0000E+00  0.1283E+02
     -9.667  0.0000E+00  0.1283E+02
     -9.656  0.0000E+00  0.1283E+02
     -9.645  0.5388E-12  0.1283E+02
     -9.634  0.2317E-07  0.1283E+02
     -9.623  0.1002E-03  0.1283E+02
     -9.612  0.4507E-01  0.1283E+02
     -9.601  0.2261E+01  0.1286E+02
     -9.591  0.1422E+02  0.1301E+02
     -9.580  0.1260E+02  0.1315E+02
     -9.569  0.1558E+01  0.1317E+02
     -9.558  0.2449E-01  0.1317E+02
     -9.547  0.1386E+00  0.1317E+02
     -9.536  0.2991E+01  0.1320E+02
     -9.525  0.8544E+01  0.1329E+02
     -9.515  0.3491E+01  0.1333E+02
     -9.504  0.2162E+00  0.1333E+02
     -9.493  0.1632E+01  0.1335E+02
     -9.482  0.1330E+02  0.1350E+02
     -9.471  0.2192E+02  0.1373E+02
     -9.460  0.1905E+02  0.1394E+02
     -9.450  0.5478E+01  0.1400E+02
     -9.439  0.5212E+01  0.1406E+02
     -9.428  0.1686E+02  0.1424E+02
     -9.417  0.8318E+01  0.1433E+02
     -9.406  0.3982E+01  0.1437E+02
     -9.395  0.8551E+01  0.1447E+02
     -9.384  0.3028E+01  0.1450E+02
     -9.374  0.1420E+00  0.1450E+02
     -9.363  0.7743E-03  0.1450E+02
     -9.352  0.4495E-06  0.1450E+02
     -9.341  0.2650E-10  0.1450E+02
     -9.330  0.4603E-13  0.1450E+02
     -9.319  0.3216E-08  0.1450E+02
     -9.308  0.2210E-04  0.1450E+02
     -9.298  0.1566E-01  0.1450E+02
     -9.287  0.1215E+01  0.1451E+02
     -9.276  0.1151E+02  0.1464E+02
     -9.265  0.1510E+02  0.1480E+02
     -9.254  0.2804E+01  0.1483E+02
     -9.243  0.6602E-01  0.1483E+02
     -9.232  0.1746E-03  0.1483E+02
     -9.222  0.7242E-06  0.1483E+02
     -9.211  0.1256E-02  0.1483E+02
     -9.200  0.2484E+00  0.1484E+02
     -9.189  0.5810E+01  0.1490E+02
     -9.178  0.2018E+02  0.1512E+02
     -9.167  0.1590E+02  0.1529E+02
     -9.156  0.3759E+01  0.1533E+02
     -9.146  0.1761E+00  0.1533E+02
     -9.135  0.1054E-02  0.1533E+02
     -9.124  0.6823E-06  0.1533E+02
     -9.113  0.4500E-10  0.1533E+02
     -9.102  0.0000E+00  0.1533E+02
     -9.091  0.1114E-10  0.1533E+02
     -9.081  0.2615E-06  0.1533E+02
     -9.070  0.6208E-03  0.1533E+02
     -9.059  0.1555E+00  0.1534E+02
     -9.048  0.4459E+01  0.1538E+02
     -9.037  0.1662E+02  0.1556E+02
     -9.026  0.8922E+01  0.1566E+02
     -9.015  0.3818E+01  0.1570E+02
     -9.005  0.1556E+02  0.1587E+02
     -8.994  0.1084E+02  0.1599E+02
     -8.983  0.1044E+01  0.1600E+02
     -8.972  0.1225E-01  0.1600E+02
     -8.961  0.1574E-04  0.1600E+02
     -8.950  0.2100E-08  0.1600E+02
     -8.939  0.2127E-06  0.1600E+02
     -8.929  0.4459E-03  0.1600E+02
     -8.918  0.9939E-01  0.1600E+02
     -8.907  0.2670E+01  0.1603E+02
     -8.896  0.1275E+02  0.1617E+02
     -8.885  0.2056E+02  0.1639E+02
     -8.874  0.9314E+01  0.1649E+02
     -8.863  0.1162E+01  0.1651E+02
     -8.853  0.5775E+01  0.1657E+02
     -8.842  0.1482E+02  0.1673E+02
     -8.831  0.1754E+02  0.1692E+02
     -8.820  0.6935E+01  0.1699E+02
     -8.809  0.5110E+00  0.1700E+02
     -8.798  0.2169E-01  0.1700E+02
     -8.787  0.1255E+01  0.1701E+02
     -8.777  0.1165E+02  0.1714E+02
     -8.766  0.1500E+02  0.1730E+02
     -8.755  0.2731E+01  0.1733E+02
     -8.744  0.2207E+00  0.1734E+02
     -8.733  0.3188E+01  0.1737E+02
     -8.722  0.8556E+01  0.1746E+02
     -8.712  0.3286E+01  0.1750E+02
     -8.701  0.1679E+00  0.1750E+02
     -8.690  0.6425E-02  0.1750E+02
     -8.679  0.6329E+00  0.1751E+02
     -8.668  0.8805E+01  0.1760E+02
     -8.657  0.1663E+02  0.1778E+02
     -8.646  0.4483E+01  0.1783E+02
     -8.636  0.1574E+00  0.1783E+02
     -8.625  0.5787E-01  0.1783E+02
     -8.614  0.1360E+01  0.1785E+02
     -8.603  0.4248E+01  0.1789E+02
     -8.592  0.1937E+01  0.1792E+02
     -8.581  0.1647E+01  0.1793E+02
     -8.570  0.7721E+01  0.1802E+02
     -8.560  0.5515E+01  0.1808E+02
     -8.549  0.5452E+00  0.1808E+02
     -8.538  0.1975E+00  0.1809E+02
     -8.527  0.3710E+01  0.1813E+02
     -8.516  0.1638E+02  0.1830E+02
     -8.505  0.1594E+02  0.1848E+02
     -8.494  0.5474E+01  0.1854E+02
     -8.484  0.3727E+01  0.1858E+02
     -8.473  0.6348E+00  0.1858E+02
     -8.462  0.1390E-01  0.1858E+02
     -8.451  0.4500E-01  0.1858E+02
     -8.440  0.2946E+01  0.1862E+02
     -8.429  0.2444E+02  0.1888E+02
     -8.419  0.2893E+02  0.1920E+02
     -8.408  0.4957E+01  0.1925E+02
     -8.397  0.1100E+00  0.1925E+02
     -8.386  0.2813E-03  0.1925E+02
     -8.375  0.7690E-07  0.1925E+02
     -8.364  0.2159E-11  0.1925E+02
     -8.353  0.0000E+00  0.1925E+02
     -8.343  0.0000E+00  0.1925E+02
     -8.332  0.0000E+00  0.1925E+02
     -8.321  0.0000E+00  0.1925E+02
     -8.310  0.1620E-12  0.1925E+02
     -8.299  0.7714E-08  0.1925E+02
     -8.288  0.3676E-04  0.1925E+02
     -8.277  0.1819E-01  0.1925E+02
     -8.267  0.9993E+00  0.1926E+02
     -8.256  0.6848E+01  0.1934E+02
     -8.245  0.6589E+01  0.1941E+02
     -8.234  0.8874E+00  0.1942E+02
     -8.223  0.1483E-01  0.1942E+02
     -8.212  0.2741E-04  0.1942E+02
     -8.201  0.5252E-08  0.1942E+02
     -8.191  0.9514E-12  0.1942E+02
     -8.180  0.3347E-07  0.1942E+02
     -8.169  0.1324E-03  0.1942E+02
     -8.158  0.5463E-01  0.1942E+02
     -8.147  0.2522E+01  0.1944E+02
     -8.136  0.1468E+02  0.1960E+02
     -8.125  0.1206E+02  0.1973E+02
     -8.115  0.1378E+01  0.1975E+02
     -8.104  0.1932E-01  0.1975E+02
     -8.093  0.2976E-04  0.1975E+02
     -8.082  0.4733E-08  0.1975E+02
     -8.071  0.7502E-13  0.1975E+02
     -8.060  0.0000E+00  0.1975E+02
     -8.050  0.0000E+00  0.1975E+02
     -8.039  0.1108E-13  0.1975E+02
     -8.028  0.8960E-09  0.1975E+02
     -8.017  0.7036E-05  0.1975E+02
     -8.006  0.5682E-02  0.1975E+02
     -7.995  0.5002E+00  0.1976E+02
     -7.984  0.5336E+01  0.1981E+02
     -7.974  0.7837E+01  0.1990E+02
     -7.963  0.1634E+01  0.1992E+02
     -7.952  0.4355E-01  0.1992E+02
     -7.941  0.1311E-03  0.1992E+02
     -7.930  0.3511E-04  0.1992E+02
     -7.919  0.2169E-01  0.1992E+02
     -7.908  0.1476E+01  0.1993E+02
     -7.898  0.1237E+02  0.2007E+02
     -7.887  0.1443E+02  0.2022E+02
     -7.876  0.2373E+01  0.2025E+02
     -7.865  0.4909E-01  0.2025E+02
     -7.854  0.1134E-03  0.2025E+02
     -7.843  0.2727E-07  0.2025E+02
     -7.832  0.6581E-12  0.2025E+02
     -7.822  0.0000E+00  0.2025E+02
     -7.811  0.0000E+00  0.2025E+02
     -7.800  0.0000E+00  0.2025E+02
     -7.789  0.0000E+00  0.2025E+02
     -7.778  0.0000E+00  0.2025E+02
     -7.767  0.0000E+00  0.2025E+02
     -7.756  0.0000E+00  0.2025E+02
     -7.746  0.0000E+00  0.2025E+02
     -7.735  0.0000E+00  0.2025E+02
     -7.724  0.0000E+00  0.2025E+02
     -7.713  0.0000E+00  0.2025E+02
     -7.702  0.0000E+00  0.2025E+02
     -7.691  0.0000E+00  0.2025E+02
     -7.681  0.0000E+00  0.2025E+02
     -7.670  0.0000E+00  0.2025E+02
     -7.659  0.0000E+00  0.2025E+02
     -7.648  0.0000E+00  0.2025E+02
     -7.637  0.0000E+00  0.2025E+02
     -7.626  0.0000E+00  0.2025E+02
     -7.615  0.0000E+00  0.2025E+02
     -7.605  0.0000E+00  0.2025E+02
     -7.594  0.0000E+00  0.2025E+02
     -7.583  0.3410E-14  0.2025E+02
     -7.572  0.4519E-09  0.2025E+02
     -7.561  0.4827E-05  0.2025E+02
     -7.550  0.5275E-02  0.2025E+02
     -7.539  0.6221E+00  0.2026E+02
     -7.529  0.8739E+01  0.2035E+02
     -7.518  0.1666E+02  0.2053E+02
     -7.507  0.4532E+01  0.2058E+02
     -7.496  0.1604E+00  0.2058E+02
     -7.485  0.6504E-03  0.2058E+02
     -7.474  0.5411E-05  0.2058E+02
     -7.463  0.5514E-02  0.2058E+02
     -7.453  0.6396E+00  0.2059E+02
     -7.442  0.8856E+01  0.2069E+02
     -7.431  0.1751E+02  0.2088E+02
     -7.420  0.1467E+02  0.2104E+02
     -7.409  0.1611E+02  0.2121E+02
     -7.398  0.3544E+01  0.2125E+02
     -7.387  0.1010E+00  0.2125E+02
     -7.377  0.3263E-03  0.2125E+02
     -7.366  0.1106E-06  0.2125E+02
     -7.355  0.3782E-11  0.2125E+02
     -7.344  0.0000E+00  0.2125E+02
     -7.333  0.0000E+00  0.2125E+02
     -7.322  0.0000E+00  0.2125E+02
     -7.312  0.0000E+00  0.2125E+02
     -7.301  0.0000E+00  0.2125E+02
     -7.290  0.0000E+00  0.2125E+02
     -7.279  0.1023E-13  0.2125E+02
     -7.268  0.8004E-09  0.2125E+02
     -7.257  0.6448E-05  0.2125E+02
     -7.246  0.5339E-02  0.2125E+02
     -7.236  0.4816E+00  0.2126E+02
     -7.225  0.5256E+01  0.2131E+02
     -7.214  0.7887E+01  0.2140E+02
     -7.203  0.1682E+01  0.2142E+02
     -7.192  0.4588E-01  0.2142E+02
     -7.181  0.1416E-03  0.2142E+02
     -7.170  0.4580E-07  0.2142E+02
     -7.160  0.1494E-11  0.2142E+02
     -7.149  0.0000E+00  0.2142E+02
     -7.138  0.0000E+00  0.2142E+02
     -7.127  0.0000E+00  0.2142E+02
     -7.116  0.0000E+00  0.2142E+02
     -7.105  0.0000E+00  0.2142E+02
     -7.094  0.0000E+00  0.2142E+02
     -7.084  0.5115E-14  0.2142E+02
     -7.073  0.4565E-09  0.2142E+02
     -7.062  0.4172E-05  0.2142E+02
     -7.051  0.3911E-02  0.2142E+02
     -7.040  0.3976E+00  0.2142E+02
     -7.029  0.4857E+01  0.2147E+02
     -7.019  0.8111E+01  0.2156E+02
     -7.008  0.1929E+01  0.2158E+02
     -6.997  0.5914E-01  0.2158E+02
     -6.986  0.2063E-03  0.2158E+02
     -6.975  0.7564E-07  0.2158E+02
     -6.964  0.6928E-11  0.2158E+02
     -6.953  0.1030E-06  0.2158E+02
     -6.943  0.2599E-03  0.2158E+02
     -6.932  0.6906E-01  0.2158E+02
     -6.921  0.2095E+01  0.2161E+02
     -6.910  0.8244E+01  0.2170E+02
     -6.899  0.5527E+01  0.2176E+02
     -6.888  0.7015E+01  0.2183E+02