 vasp.5.4.4.18Apr17-6-g9f103f2a35 (build Jun 20 2017 18:00:50) complex          
  
 executed on             LinuxIFC date 2018.03.16  16:02:42
 running on   32 total cores
 distrk:  each k-point on   32 cores,    1 groups
 distr:  one band on NCORES_PER_BAND=   8 cores,    4 groups


--------------------------------------------------------------------------------------------------------


 INCAR:
 POTCAR:    PAW_PBE P 06Sep2000                   
 POTCAR:    PAW_PBE P 06Sep2000                   
   VRHFIN =P : s2p3                                                             
   LEXCH  = PE                                                                  
   EATOM  =   176.0430 eV,   12.9388 Ry                                         
                                                                                
   TITEL  = PAW_PBE P 06Sep2000                                                 
   LULTRA =        F    use ultrasoft PP ?                                      
   IUNSCR =        1    unscreen: 0-lin 1-nonlin 2-no                           
   RPACOR =    1.500    partial core radius                                     
   POMASS =   30.974; ZVAL   =    5.000    mass and valenz                      
   RCORE  =    1.900    outmost cutoff radius                                   
   RWIGS  =    2.330; RWIGS  =    1.233    wigner-seitz radius (au A)           
   ENMAX  =  255.040; ENMIN  =  191.280 eV                                      
   ICORE  =        2    local potential                                         
   LCOR   =        T    correct aug charges                                     
   LPAW   =        T    paw PP                                                  
   EAUG   =  342.924                                                            
   DEXC   =    0.000                                                            
   RMAX   =    1.935    core radius for proj-oper                               
   RAUG   =    1.300    factor for augmentation sphere                          
   RDEP   =    1.931    radius for radial grids                                 
   RDEPT  =    1.794    core radius for aug-charge                              
                                                                                
   Atomic configuration                                                         
    6 entries                                                                   
     n  l   j            E        occ.                                          
     1  0  0.50     -2084.0982   2.0000                                         
     2  0  0.50      -173.9859   2.0000                                         
     2  1  1.50      -124.4865   6.0000                                         
     3  0  0.50       -13.9692   2.0000                                         
     3  1  0.50        -5.5067   3.0000                                         
     3  2  1.50        -5.4423   0.0000                                         
   Description                                                                  
     l       E           TYP  RCUT    TYP  RCUT                                 
     0    -13.9691527     23  1.900                                             
     0    -11.7794650     23  1.900                                             
     1     -5.5066937     23  1.900                                             
     1     -0.2556953     23  1.900                                             
     2     -5.4423304     23  1.900                                             
  local pseudopotential read in
  partial core-charges read in
  partial kinetic energy density read in
  atomic valenz-charges read in
  non local Contribution for L=           0  read in
    real space projection operators read in
  non local Contribution for L=           0  read in
    real space projection operators read in
  non local Contribution for L=           1  read in
    real space projection operators read in
  non local Contribution for L=           1  read in
    real space projection operators read in
    PAW grid and wavefunctions read in
 
   number of l-projection  operators is LMAX  =           4
   number of lm-projection operators is LMMAX =           8
 
  PAW_PBE P 06Sep2000                   :
 energy of atom  1       EATOM= -176.0430
 kinetic energy error for atom=    0.0004 (will be added to EATOM!!)
 
 
 POSCAR: P12                                     
  positions in direct lattice
  No initial velocities read in
 exchange correlation table for  LEXCH =        8
   RHO(1)=    0.500       N(1)  =     2000
   RHO(2)=  100.500       N(2)  =     4000
 


--------------------------------------------------------------------------------------------------------


 ion  position               nearest neighbor table
   1  0.000  0.307  0.919-   2 2.23   2 2.23   3 2.26
   2  0.500  0.307  0.581-   1 2.23   1 2.23   4 2.26
   3  0.000  0.372  0.081-   4 2.23   4 2.23   1 2.26
   4  0.500  0.372  0.419-   3 2.23   3 2.23   2 2.26
   5  0.500  0.467  0.919-   6 2.23   6 2.23   7 2.26
   6  0.000  0.467  0.581-   5 2.23   5 2.23   8 2.26
   7  0.500  0.533  0.081-   8 2.23   8 2.23   5 2.26
   8  0.000  0.533  0.419-   7 2.23   7 2.23   6 2.26
   9  0.000  0.628  0.919-  10 2.23  10 2.23  11 2.26
  10  0.500  0.628  0.581-   9 2.23   9 2.23  12 2.26
  11  0.000  0.693  0.081-  12 2.23  12 2.23   9 2.26
  12  0.500  0.693  0.419-  11 2.23  11 2.23  10 2.26
 
  LATTYP: Found a simple orthorhombic cell.
 ALAT       =     3.3428860000
 B/A-ratio  =     1.3086988309
 C/A-ratio  =     9.7527732026
  
  Lattice vectors:
  
 A1 = (  -3.3428860000,   0.0000000000,   0.0000000000)
 A2 = (   0.0000000000,   0.0000000000,  -4.3748310000)
 A3 = (   0.0000000000, -32.6024090000,   0.0000000000)


Analysis of symmetry for initial positions (statically):
=====================================================================
 Subroutine PRICEL returns:
 Original cell was already a primitive cell.
 

 Routine SETGRP: Setting up the symmetry group for a 
 simple orthorhombic supercell.


 Subroutine GETGRP returns: Found  8 space group operations
 (whereof  4 operations were pure point group operations)
 out of a pool of  8 trial point group operations.


The static configuration has the point symmetry C_2h.
 The point group associated with its full space group is D_2h.


Analysis of symmetry for dynamics (positions and initial velocities):
=====================================================================
 Subroutine PRICEL returns:
 Original cell was already a primitive cell.
 

 Routine SETGRP: Setting up the symmetry group for a 
 simple orthorhombic supercell.


 Subroutine GETGRP returns: Found  8 space group operations
 (whereof  4 operations were pure point group operations)
 out of a pool of  8 trial point group operations.


The dynamic configuration has the point symmetry C_2h.
 The point group associated with its full space group is D_2h.


 Subroutine INISYM returns: Found  8 space group operations
 (whereof  4 operations are pure point group operations),
 and found     1 'primitive' translations

 
 
 KPOINTS: Automatic mesh                          

Automatic generation of k-mesh.
Space group operators:
 irot       det(A)        alpha          n_x          n_y          n_z        tau_x        tau_y        tau_z
    1     1.000000     0.000001     1.000000     0.000000     0.000000     0.000000     0.000000     0.000000
    2    -1.000000     0.000001     1.000000     0.000000     0.000000     0.000000     0.000000     0.000000
    3     1.000000   179.999999     1.000000     0.000000     0.000000     0.000000     0.000000     0.000000
    4    -1.000000   179.999999     1.000000     0.000000     0.000000     0.000000     0.000000     0.000000
    5     1.000000   179.999999     0.000000     1.000000     0.000000    -0.500000     0.000000    -0.500000
    6    -1.000000   179.999999     0.000000     1.000000     0.000000    -0.500000     0.000000    -0.500000
    7     1.000000   179.999999     0.000000     0.000000     1.000000    -0.500000     0.000000    -0.500000
    8    -1.000000   179.999999     0.000000     0.000000     1.000000    -0.500000     0.000000    -0.500000
 
 Subroutine IBZKPT returns following result:
 ===========================================
 
 Found     12 irreducible k-points:
 
 Following reciprocal coordinates:
            Coordinates               Weight
  0.000000  0.000000  0.000000      1.000000
  0.166667  0.000000  0.000000      2.000000
  0.333333  0.000000  0.000000      2.000000
  0.500000  0.000000  0.000000      1.000000
  0.000000  0.000000  0.250000      2.000000
  0.166667  0.000000  0.250000      4.000000
  0.333333  0.000000  0.250000      4.000000
  0.500000  0.000000  0.250000      2.000000
  0.000000  0.000000  0.500000      1.000000
  0.166667  0.000000  0.500000      2.000000
  0.333333  0.000000  0.500000      2.000000
  0.500000  0.000000  0.500000      1.000000
 
 Following cartesian coordinates:
            Coordinates               Weight
  0.000000  0.000000  0.000000      1.000000
  0.049857  0.000000  0.000000      2.000000
  0.099714  0.000000  0.000000      2.000000
  0.149571  0.000000  0.000000      1.000000
  0.000000  0.000000  0.057145      2.000000
  0.049857  0.000000  0.057145      4.000000
  0.099714  0.000000  0.057145      4.000000
  0.149571  0.000000  0.057145      2.000000
  0.000000  0.000000  0.114290      1.000000
  0.049857  0.000000  0.114290      2.000000
  0.099714  0.000000  0.114290      2.000000
  0.149571  0.000000  0.114290      1.000000
 


--------------------------------------------------------------------------------------------------------




 Dimension of arrays:
   k-points           NKPTS =     12   k-points in BZ     NKDIM =     12   number of bands    NBANDS=     40
   number of dos      NEDOS =   2000   number of ions     NIONS =     12
   non local maximal  LDIM  =      4   non local SUM 2l+1 LMDIM =      8
   total plane-waves  NPLWV = 161280
   max r-space proj   IRMAX =      1   max aug-charges    IRDMAX=  10492
   dimension x,y,z NGX =    24 NGY =  224 NGZ =   30
   dimension x,y,z NGXF=    48 NGYF=  448 NGZF=   60
   support grid    NGXF=    48 NGYF=  448 NGZF=   60
   ions per type =              12
   NGX,Y,Z   is equivalent  to a cutoff of  11.94, 11.42, 11.40 a.u.
   NGXF,Y,Z  is equivalent  to a cutoff of  23.87, 22.84, 22.80 a.u.

 SYSTEM =  Generic Input                           
 POSCAR =  P12                                     

 Startparameter for this run:
   NWRITE =      2    write-flag & timer
   PREC   = normal    normal or accurate (medium, high low for compatibility)
   ISTART =      0    job   : 0-new  1-cont  2-samecut
   ICHARG =      2    charge: 1-file 2-atom 10-const
   ISPIN  =      1    spin polarized calculation?
   LNONCOLLINEAR =      F non collinear calculations
   LSORBIT =      F    spin-orbit coupling
   INIWAV =      1    electr: 0-lowe 1-rand  2-diag
   LASPH  =      T    aspherical Exc in radial PAW
   METAGGA=      F    non-selfconsistent MetaGGA calc.

 Electronic Relaxation 1
   ENCUT  =  750.0 eV  55.12 Ry    7.42 a.u.   7.46 72.80  9.77*2*pi/ulx,y,z
   ENINI  =  750.0     initial cutoff
   ENAUG  =  342.9 eV  augmentation charge cutoff
   NELM   =    200;   NELMIN=  2; NELMDL=  0     # of ELM steps 
   EDIFF  = 0.1E-04   stopping-criterion for ELM
   LREAL  =      F    real-space projection
   NLSPLINE    = F    spline interpolate recip. space projectors
   LCOMPAT=      F    compatible to vasp.4.4
   GGA_COMPAT  = T    GGA compatible to vasp.4.4-vasp.4.6
   LMAXPAW     = -100 max onsite density
   LMAXMIX     =    2 max onsite mixed and CHGCAR
   VOSKOWN=      0    Vosko Wilk Nusair interpolation
   ROPT   =    0.00000
 Ionic relaxation
   EDIFFG = -.2E-01   stopping-criterion for IOM
   NSW    =      0    number of steps for IOM
   NBLOCK =      1;   KBLOCK =      1    inner block; outer block 
   IBRION =     -1    ionic relax: 0-MD 1-quasi-New 2-CG
   NFREE  =      1    steps in history (QN), initial steepest desc. (CG)
   ISIF   =      3    stress and relaxation
   IWAVPR =     11    prediction:  0-non 1-charg 2-wave 3-comb
   ISYM   =      2    0-nonsym 1-usesym 2-fastsym
   LCORR  =      T    Harris-Foulkes like correction to forces

   POTIM  = 0.5000    time-step for ionic-motion
   TEIN   =    0.0    initial temperature
   TEBEG  =    0.0;   TEEND  =   0.0 temperature during run
   SMASS  =  -3.00    Nose mass-parameter (am)
   estimated Nose-frequenzy (Omega)   =  0.10E-29 period in steps =****** mass=  -0.255E-27a.u.
   SCALEE = 1.0000    scale energy and forces
   NPACO  =    256;   APACO  = 16.0  distance and # of slots for P.C.
   PSTRESS=    0.0 pullay stress

  Mass of Ions in am
   POMASS =  30.97
  Ionic Valenz
   ZVAL   =   5.00
  Atomic Wigner-Seitz radii
   RWIGS  =  -1.00
  virtual crystal weights 
   VCA    =   1.00
   NELECT =      60.0000    total number of electrons
   NUPDOWN=      -1.0000    fix difference up-down

 DOS related values:
   EMIN   =  10.00;   EMAX   =-10.00  energy-range for DOS
   EFERMI =   0.00
   ISMEAR =     0;   SIGMA  =   0.01  broadening in eV -4-tet -1-fermi 0-gaus

 Electronic relaxation 2 (details)
   IALGO  =     38    algorithm
   LDIAG  =      T    sub-space diagonalisation (order eigenvalues)
   LSUBROT=      F    optimize rotation matrix (better conditioning)
   TURBO    =      0    0=normal 1=particle mesh
   IRESTART =      0    0=no restart 2=restart with 2 vectors
   NREBOOT  =      0    no. of reboots
   NMIN     =      0    reboot dimension
   EREF     =   0.00    reference energy to select bands
   IMIX   =      4    mixing-type and parameters
     AMIX     =   0.40;   BMIX     =  1.00
     AMIX_MAG =   1.60;   BMIX_MAG =  1.00
     AMIN     =   0.10
     WC   =   100.;   INIMIX=   1;  MIXPRE=   1;  MAXMIX= -45

 Intra band minimization:
   WEIMIN = 0.0000     energy-eigenvalue tresh-hold
   EBREAK =  0.63E-07  absolut break condition
   DEPER  =   0.30     relativ break condition  

   TIME   =   0.40     timestep for ELM

  volume/ion in A,a.u.               =      39.73       268.13
  Fermi-wavevector in a.u.,A,eV,Ry     =   0.820379  1.550291  9.157011  0.673021
  Thomas-Fermi vector in A             =   1.931350
 
 Write flags
   LWAVE        =      T    write WAVECAR
   LDOWNSAMPLE  =      F    k-point downsampling of WAVECAR
   LCHARG       =      T    write CHGCAR
   LVTOT        =      F    write LOCPOT, total local potential
   LVHAR        =      T    write LOCPOT, Hartree potential only
   LELF         =      F    write electronic localiz. function (ELF)
   LORBIT       =     11    0 simple, 1 ext, 2 COOP (PROOUT), +10 PAW based schemes


 Dipole corrections
   LMONO  =      F    monopole corrections only (constant potential shift)
   LDIPOL =      F    correct potential (dipole corrections)
   IDIPOL =      0    1-x, 2-y, 3-z, 4-all directions 
   EPSILON=  1.0000000 bulk dielectric constant

 Core level calculations are selected ICORELEVEL =  1
 Exchange correlation treatment:
   GGA     =    PE    GGA type
   LEXCH   =     8    internal setting for exchange type
   VOSKOWN=      0    Vosko Wilk Nusair interpolation
   LHFCALC =     F    Hartree Fock is set to
   LHFONE  =     F    Hartree Fock one center treatment
   AEXX    =    0.0000 exact exchange contribution

 Linear response parameters
   LEPSILON=     F    determine dielectric tensor
   LRPA    =     F    only Hartree local field effects (RPA)
   LNABLA  =     F    use nabla operator in PAW spheres
   LVEL    =     F    velocity operator in full k-point grid
   LINTERFAST=   F  fast interpolation
   KINTER  =     0    interpolate to denser k-point grid
   CSHIFT  =0.1000    complex shift for real part using Kramers Kronig
   OMEGAMAX=  -1.0    maximum frequency
   DEG_THRESHOLD= 0.2000000E-02 threshold for treating states as degnerate
   RTIME   =   -0.100 relaxation time in fs
  (WPLASMAI=    0.000 imaginary part of plasma frequency in eV, 0.658/RTIME)
   DFIELD  = 0.0000000 0.0000000 0.0000000 field for delta impulse in time
 
 Orbital magnetization related:
   ORBITALMAG=     F  switch on orbital magnetization
   LCHIMAG   =     F  perturbation theory with respect to B field
   DQ        =  0.001000  dq finite difference perturbation B field
   LLRAUG    =     F  two centre corrections for induced B field



--------------------------------------------------------------------------------------------------------


 Static calculation
 charge density and potential will be updated during run
 non-spin polarized calculation
 Variant of blocked Davidson
 Davidson routine will perform the subspace rotation
 perform sub-space diagonalisation
    after iterative eigenvector-optimisation
 modified Broyden-mixing scheme, WC =      100.0
 initial mixing is a Kerker type mixing with AMIX =  0.4000 and BMIX =      1.0000
 Hartree-type preconditioning will be used
 using additional bands           10
 reciprocal scheme for non local part
 use partial core corrections
 calculate Harris-corrections to forces 
   (improved forces if not selfconsistent)
 use gradient corrections 
 use of overlap-Matrix (Vanderbilt PP)
 Gauss-broadening in eV      SIGMA  =   0.01


--------------------------------------------------------------------------------------------------------


  energy-cutoff  :      750.00
  volume of cell :      476.80
      direct lattice vectors                 reciprocal lattice vectors
     3.342886000  0.000000000  0.000000000     0.299142717  0.000000000  0.000000000
     0.000000000 32.602409000  0.000000000     0.000000000  0.030672580  0.000000000
     0.000000000  0.000000000  4.374831000     0.000000000  0.000000000  0.228580258

  length of vectors
     3.342886000 32.602409000  4.374831000     0.299142717  0.030672580  0.228580258


 
 k-points in units of 2pi/SCALE and weight: Automatic mesh                          
   0.00000000  0.00000000  0.00000000       0.042
   0.04985712  0.00000000  0.00000000       0.083
   0.09971424  0.00000000  0.00000000       0.083
   0.14957136  0.00000000  0.00000000       0.042
   0.00000000  0.00000000  0.05714506       0.083
   0.04985712  0.00000000  0.05714506       0.167
   0.09971424  0.00000000  0.05714506       0.167
   0.14957136  0.00000000  0.05714506       0.083
   0.00000000  0.00000000  0.11429013       0.042
   0.04985712  0.00000000  0.11429013       0.083
   0.09971424  0.00000000  0.11429013       0.083
   0.14957136  0.00000000  0.11429013       0.042
 
 k-points in reciprocal lattice and weights: Automatic mesh                          
   0.00000000  0.00000000  0.00000000       0.042
   0.16666667  0.00000000  0.00000000       0.083
   0.33333333  0.00000000  0.00000000       0.083
   0.50000000  0.00000000  0.00000000       0.042
   0.00000000  0.00000000  0.25000000       0.083
   0.16666667  0.00000000  0.25000000       0.167
   0.33333333  0.00000000  0.25000000       0.167
   0.50000000  0.00000000  0.25000000       0.083
   0.00000000  0.00000000  0.50000000       0.042
   0.16666667  0.00000000  0.50000000       0.083
   0.33333333  0.00000000  0.50000000       0.083
   0.50000000  0.00000000  0.50000000       0.042
 
 position of ions in fractional coordinates (direct lattice) 
   0.00000000  0.30672600  0.91892400
   0.50000000  0.30672600  0.58107600
   0.00000000  0.37246700  0.08107600
   0.50000000  0.37246700  0.41892400
   0.50000000  0.46712900  0.91892400
   0.00000000  0.46712900  0.58107600
   0.50000000  0.53287100  0.08107600
   0.00000000  0.53287100  0.41892400
   0.00000000  0.62753300  0.91892400
   0.50000000  0.62753300  0.58107600
   0.00000000  0.69327400  0.08107600
   0.50000000  0.69327400  0.41892400
 
 position of ions in cartesian coordinates  (Angst):
   0.00000000 10.00000650  4.02013720
   1.67144300 10.00000650  2.54210930
   0.00000000 12.14332147  0.35469380
   1.67144300 12.14332147  1.83272170
   1.67144300 15.22953071  4.02013720
   0.00000000 15.22953071  2.54210930
   1.67144300 17.37287829  0.35469380
   0.00000000 17.37287829  1.83272170
   0.00000000 20.45908753  4.02013720
   1.67144300 20.45908753  2.54210930
   0.00000000 22.60240250  0.35469380
   1.67144300 22.60240250  1.83272170
 


--------------------------------------------------------------------------------------------------------


 k-point  1 :   0.0000 0.0000 0.0000  plane waves:   22289
 k-point  2 :   0.1667 0.0000 0.0000  plane waves:   22271
 k-point  3 :   0.3333 0.0000 0.0000  plane waves:   22239
 k-point  4 :   0.5000 0.0000 0.0000  plane waves:   22146
 k-point  5 :   0.0000 0.0000 0.2500  plane waves:   22264
 k-point  6 :   0.1667 0.0000 0.2500  plane waves:   22274
 k-point  7 :   0.3333 0.0000 0.2500  plane waves:   22217
 k-point  8 :   0.5000 0.0000 0.2500  plane waves:   22132
 k-point  9 :   0.0000 0.0000 0.5000  plane waves:   22264
 k-point 10 :   0.1667 0.0000 0.5000  plane waves:   22270
 k-point 11 :   0.3333 0.0000 0.5000  plane waves:   22208
 k-point 12 :   0.5000 0.0000 0.5000  plane waves:   22240

 maximum and minimum number of plane-waves per node :      2806     2748

 maximum number of plane-waves:     22289
 maximum index in each direction: 
   IXMAX=    7   IYMAX=   72   IZMAX=    9
   IXMIN=   -7   IYMIN=  -72   IZMIN=  -10


 parallel 3D FFT for wavefunctions:
    minimum data exchange during FFTs selected (reduces bandwidth)
 parallel 3D FFT for charge:
    minimum data exchange during FFTs selected (reduces bandwidth)


 total amount of memory used by VASP MPI-rank0    43919. kBytes
=======================================================================

   base      :      30000. kBytes
   nonl-proj :       2684. kBytes
   fftplans  :       2376. kBytes
   grid      :       3454. kBytes
   one-center:          6. kBytes
   wavefun   :       5399. kBytes
 
     INWAV:  cpu time    0.0000: real time    0.0000
 Broyden mixing: mesh for mixing (old mesh)
   NGX = 15   NGY =145   NGZ = 19
  (NGX  = 48   NGY  =448   NGZ  = 60)
  gives a total of  41325 points

 initial charge density was supplied:
 charge density of overlapping atoms calculated
 number of electron      60.0000000 magnetization 
 keeping initial charge density in first step


--------------------------------------------------------------------------------------------------------


 Maximum index for augmentation-charges          545 (set IRDMAX)


--------------------------------------------------------------------------------------------------------


 First call to EWALD:  gamma=   0.227
 Maximum number of real-space cells 6x 1x 5
 Maximum number of reciprocal cells 1x10x 2

    FEWALD:  cpu time    0.0018: real time    0.0018


--------------------------------------- Iteration      1(   1)  ---------------------------------------


    POTLOK:  cpu time    0.0607: real time    0.0623
    SETDIJ:  cpu time    0.0662: real time    0.0662
     EDDAV:  cpu time    1.0062: real time    1.0077
       DOS:  cpu time    0.0006: real time    0.0006
    --------------------------------------------
      LOOP:  cpu time    1.1337: real time    1.1368

 eigenvalue-minimisations  :   960
 total energy-change (2. order) : 0.4342476E+03  (-0.2653381E+04)
 number of electron      60.0000000 magnetization 
 augmentation part       60.0000000 magnetization 

 Free energy of the ion-electron system (eV)
  ---------------------------------------------------
  alpha Z        PSCENC =        30.28014394
  Ewald energy   TEWEN  =     14973.24208224
  -Hartree energ DENC   =    -16928.93300519
  -exchange      EXHF   =         0.00000000
  -V(xc)+E(xc)   XCENC  =        40.33410162
  PAW double counting   =      1677.12035881    -1579.18296132
  entropy T*S    EENTRO =        -0.00078131
  eigenvalues    EBANDS =       108.87680516
  atomic energy  EATOM  =      2112.51083163
  Solvation  Ediel_sol  =         0.00000000
  ---------------------------------------------------
  free energy    TOTEN  =       434.24757558 eV

  energy without entropy =      434.24835689  energy(sigma->0) =      434.24796623


--------------------------------------------------------------------------------------------------------




--------------------------------------- Iteration      1(   2)  ---------------------------------------


     EDDAV:  cpu time    1.3045: real time    1.3054
       DOS:  cpu time    0.0005: real time    0.0005
    --------------------------------------------
      LOOP:  cpu time    1.3049: real time    1.3059

 eigenvalue-minimisations  :  1384
 total energy-change (2. order) :-0.4474428E+03  (-0.4309515E+03)
 number of electron      60.0000000 magnetization 
 augmentation part       60.0000000 magnetization 

 Free energy of the ion-electron system (eV)
  ---------------------------------------------------
  alpha Z        PSCENC =        30.28014394
  Ewald energy   TEWEN  =     14973.24208224
  -Hartree energ DENC   =    -16928.93300519
  -exchange      EXHF   =         0.00000000
  -V(xc)+E(xc)   XCENC  =        40.33410162
  PAW double counting   =      1677.12035881    -1579.18296132
  entropy T*S    EENTRO =        -0.00000000
  eigenvalues    EBANDS =      -338.56681222
  atomic energy  EATOM  =      2112.51083163
  Solvation  Ediel_sol  =         0.00000000
  ---------------------------------------------------
  free energy    TOTEN  =       -13.19526050 eV

  energy without entropy =      -13.19526050  energy(sigma->0) =      -13.19526050


--------------------------------------------------------------------------------------------------------




--------------------------------------- Iteration      1(   3)  ---------------------------------------


     EDDAV:  cpu time    1.1261: real time    1.1283
       DOS:  cpu time    0.0004: real time    0.0004
    --------------------------------------------
      LOOP:  cpu time    1.1265: real time    1.1287

 eigenvalue-minimisations  :  1152
 total energy-change (2. order) :-0.4969020E+02  (-0.4892612E+02)
 number of electron      60.0000000 magnetization 
 augmentation part       60.0000000 magnetization 

 Free energy of the ion-electron system (eV)
  ---------------------------------------------------
  alpha Z        PSCENC =        30.28014394
  Ewald energy   TEWEN  =     14973.24208224
  -Hartree energ DENC   =    -16928.93300519
  -exchange      EXHF   =         0.00000000
  -V(xc)+E(xc)   XCENC  =        40.33410162
  PAW double counting   =      1677.12035881    -1579.18296132
  entropy T*S    EENTRO =        -0.00000000
  eigenvalues    EBANDS =      -388.25700825
  atomic energy  EATOM  =      2112.51083163
  Solvation  Ediel_sol  =         0.00000000
  ---------------------------------------------------
  free energy    TOTEN  =       -62.88545653 eV

  energy without entropy =      -62.88545653  energy(sigma->0) =      -62.88545653


--------------------------------------------------------------------------------------------------------




--------------------------------------- Iteration      1(   4)  ---------------------------------------


     EDDAV:  cpu time    1.3373: real time    1.3406
       DOS:  cpu time    0.0004: real time    0.0004
    --------------------------------------------
      LOOP:  cpu time    1.3377: real time    1.3409

 eigenvalue-minimisations  :  1416
 total energy-change (2. order) :-0.1879074E+01  (-0.1868502E+01)
 number of electron      60.0000000 magnetization 
 augmentation part       60.0000000 magnetization 

 Free energy of the ion-electron system (eV)
  ---------------------------------------------------
  alpha Z        PSCENC =        30.28014394
  Ewald energy   TEWEN  =     14973.24208224
  -Hartree energ DENC   =    -16928.93300519
  -exchange      EXHF   =         0.00000000
  -V(xc)+E(xc)   XCENC  =        40.33410162
  PAW double counting   =      1677.12035881    -1579.18296132
  entropy T*S    EENTRO =        -0.00000000
  eigenvalues    EBANDS =      -390.13608265
  atomic energy  EATOM  =      2112.51083163
  Solvation  Ediel_sol  =         0.00000000
  ---------------------------------------------------
  free energy    TOTEN  =       -64.76453092 eV

  energy without entropy =      -64.76453092  energy(sigma->0) =      -64.76453092


--------------------------------------------------------------------------------------------------------




--------------------------------------- Iteration      1(   5)  ---------------------------------------


     EDDAV:  cpu time    1.3347: real time    1.3374
       DOS:  cpu time    0.0004: real time    0.0004
    CHARGE:  cpu time    0.0654: real time    0.0654
    MIXING:  cpu time    0.0010: real time    0.0011
    --------------------------------------------
      LOOP:  cpu time    1.4016: real time    1.4043

 eigenvalue-minimisations  :  1440
 total energy-change (2. order) :-0.5089327E-01  (-0.5085746E-01)
 number of electron      60.0000003 magnetization 
 augmentation part       -6.5200850 magnetization 

 Broyden mixing:
  rms(total) = 0.17523E+01    rms(broyden)= 0.17523E+01
  rms(prec ) = 0.17578E+01
  weight for this iteration     100.00

 Free energy of the ion-electron system (eV)
  ---------------------------------------------------
  alpha Z        PSCENC =        30.28014394
  Ewald energy   TEWEN  =     14973.24208224
  -Hartree energ DENC   =    -16928.93300519
  -exchange      EXHF   =         0.00000000
  -V(xc)+E(xc)   XCENC  =        40.33410162
  PAW double counting   =      1677.12035881    -1579.18296132
  entropy T*S    EENTRO =        -0.00000000
  eigenvalues    EBANDS =      -390.18697593
  atomic energy  EATOM  =      2112.51083163
  Solvation  Ediel_sol  =         0.00000000
  ---------------------------------------------------
  free energy    TOTEN  =       -64.81542420 eV

  energy without entropy =      -64.81542420  energy(sigma->0) =      -64.81542420


--------------------------------------------------------------------------------------------------------




--------------------------------------- Iteration      1(   6)  ---------------------------------------


    POTLOK:  cpu time    0.0347: real time    0.0361
    SETDIJ:  cpu time    0.0664: real time    0.0664
     EDDAV:  cpu time    1.2423: real time    1.2434
       DOS:  cpu time    0.0005: real time    0.0005
    CHARGE:  cpu time    0.0641: real time    0.0641
    MIXING:  cpu time    0.0011: real time    0.0011
    --------------------------------------------
      LOOP:  cpu time    1.4090: real time    1.4115

 eigenvalue-minimisations  :  1296
 total energy-change (2. order) : 0.3245495E+00  (-0.1992388E-01)
 number of electron      60.0000003 magnetization 
 augmentation part       -6.4820569 magnetization 

 Broyden mixing:
  rms(total) = 0.10384E+01    rms(broyden)= 0.10384E+01
  rms(prec ) = 0.10416E+01
  weight for this iteration     100.00

 eigenvalues of (default mixing * dielectric matrix)
  average eigenvalue GAMMA=   2.4463
  2.4463

 Free energy of the ion-electron system (eV)
  ---------------------------------------------------
  alpha Z        PSCENC =        30.28014394
  Ewald energy   TEWEN  =     14973.24208224
  -Hartree energ DENC   =    -16941.13438184
  -exchange      EXHF   =         0.00000000
  -V(xc)+E(xc)   XCENC  =        41.37743208
  PAW double counting   =      3128.15953531    -3030.68434481
  entropy T*S    EENTRO =        -0.00000000
  eigenvalues    EBANDS =      -378.24217322
  atomic energy  EATOM  =      2112.51083163
  Solvation  Ediel_sol  =         0.00000000
  ---------------------------------------------------
  free energy    TOTEN  =       -64.49087467 eV

  energy without entropy =      -64.49087467  energy(sigma->0) =      -64.49087467


--------------------------------------------------------------------------------------------------------




--------------------------------------- Iteration      1(   7)  ---------------------------------------


    POTLOK:  cpu time    0.0348: real time    0.0369
    SETDIJ:  cpu time    0.0663: real time    0.0663
     EDDAV:  cpu time    1.1481: real time    1.1490
       DOS:  cpu time    0.0005: real time    0.0005
    CHARGE:  cpu time    0.0624: real time    0.0624
    MIXING:  cpu time    0.0011: real time    0.0011
    --------------------------------------------
      LOOP:  cpu time    1.3132: real time    1.3162

 eigenvalue-minimisations  :  1176
 total energy-change (2. order) : 0.1493863E+00  (-0.3591119E-01)
 number of electron      60.0000003 magnetization 
 augmentation part       -6.4356844 magnetization 

 Broyden mixing:
  rms(total) = 0.43761E-01    rms(broyden)= 0.43761E-01
  rms(prec ) = 0.45082E-01
  weight for this iteration     100.00

 eigenvalues of (default mixing * dielectric matrix)
  average eigenvalue GAMMA=   2.0553
  1.5846  2.5261

 Free energy of the ion-electron system (eV)
  ---------------------------------------------------
  alpha Z        PSCENC =        30.28014394
  Ewald energy   TEWEN  =     14973.24208224
  -Hartree energ DENC   =    -16959.78279548
  -exchange      EXHF   =         0.00000000
  -V(xc)+E(xc)   XCENC  =        43.06786095
  PAW double counting   =      6221.27266712    -6124.36286810
  entropy T*S    EENTRO =        -0.00000022
  eigenvalues    EBANDS =      -360.56941040
  atomic energy  EATOM  =      2112.51083163
  Solvation  Ediel_sol  =         0.00000000
  ---------------------------------------------------
  free energy    TOTEN  =       -64.34148833 eV

  energy without entropy =      -64.34148811  energy(sigma->0) =      -64.34148822


--------------------------------------------------------------------------------------------------------




--------------------------------------- Iteration      1(   8)  ---------------------------------------


    POTLOK:  cpu time    0.0367: real time    0.0368
    SETDIJ:  cpu time    0.0663: real time    0.0663
     EDDAV:  cpu time    1.2488: real time    1.2499
       DOS:  cpu time    0.0005: real time    0.0005
    CHARGE:  cpu time    0.0627: real time    0.0627
    MIXING:  cpu time    0.0012: real time    0.0012
    --------------------------------------------
      LOOP:  cpu time    1.4162: real time    1.4175

 eigenvalue-minimisations  :  1288
 total energy-change (2. order) : 0.1822312E-03  (-0.3206985E-02)
 number of electron      60.0000003 magnetization 
 augmentation part       -6.4459420 magnetization 

 Broyden mixing:
  rms(total) = 0.23138E-01    rms(broyden)= 0.23138E-01
  rms(prec ) = 0.23825E-01
  weight for this iteration     100.00

 eigenvalues of (default mixing * dielectric matrix)
  average eigenvalue GAMMA=   1.5905
  2.5231  0.9430  1.3055

 Free energy of the ion-electron system (eV)
  ---------------------------------------------------
  alpha Z        PSCENC =        30.28014394
  Ewald energy   TEWEN  =     14973.24208224
  -Hartree energ DENC   =    -16961.07786478
  -exchange      EXHF   =         0.00000000
  -V(xc)+E(xc)   XCENC  =        43.09973651
  PAW double counting   =      6326.87753172    -6229.89548343
  entropy T*S    EENTRO =        -0.00000007
  eigenvalues    EBANDS =      -359.37828385
  atomic energy  EATOM  =      2112.51083163
  Solvation  Ediel_sol  =         0.00000000
  ---------------------------------------------------
  free energy    TOTEN  =       -64.34130610 eV

  energy without entropy =      -64.34130603  energy(sigma->0) =      -64.34130607


--------------------------------------------------------------------------------------------------------




--------------------------------------- Iteration      1(   9)  ---------------------------------------


    POTLOK:  cpu time    0.0348: real time    0.0363
    SETDIJ:  cpu time    0.0663: real time    0.0663
     EDDAV:  cpu time    1.3261: real time    1.3272
       DOS:  cpu time    0.0005: real time    0.0005
    CHARGE:  cpu time    0.0621: real time    0.0621
    MIXING:  cpu time    0.0011: real time    0.0011
    --------------------------------------------
      LOOP:  cpu time    1.4909: real time    1.4935

 eigenvalue-minimisations  :  1440
 total energy-change (2. order) : 0.4208294E-04  (-0.1670039E-03)
 number of electron      60.0000003 magnetization 
 augmentation part       -6.4463772 magnetization 

 Broyden mixing:
  rms(total) = 0.20063E-01    rms(broyden)= 0.20063E-01
  rms(prec ) = 0.20640E-01
  weight for this iteration     100.00

 eigenvalues of (default mixing * dielectric matrix)
  average eigenvalue GAMMA=   1.8022
  2.2364  2.2364  1.3679  1.3679

 Free energy of the ion-electron system (eV)
  ---------------------------------------------------
  alpha Z        PSCENC =        30.28014394
  Ewald energy   TEWEN  =     14973.24208224
  -Hartree energ DENC   =    -16961.82129046
  -exchange      EXHF   =         0.00000000
  -V(xc)+E(xc)   XCENC  =        43.10835847
  PAW double counting   =      6326.20327190    -6229.21383401
  entropy T*S    EENTRO =        -0.00000006
  eigenvalues    EBANDS =      -358.65082765
  atomic energy  EATOM  =      2112.51083163
  Solvation  Ediel_sol  =         0.00000000
  ---------------------------------------------------
  free energy    TOTEN  =       -64.34126402 eV

  energy without entropy =      -64.34126395  energy(sigma->0) =      -64.34126398


--------------------------------------------------------------------------------------------------------




--------------------------------------- Iteration      1(  10)  ---------------------------------------


    POTLOK:  cpu time    0.0471: real time    0.0473
    SETDIJ:  cpu time    0.0663: real time    0.0663
     EDDAV:  cpu time    1.1772: real time    1.1780
       DOS:  cpu time    0.0005: real time    0.0005
    CHARGE:  cpu time    0.0679: real time    0.0679
    MIXING:  cpu time    0.0011: real time    0.0011
    --------------------------------------------
      LOOP:  cpu time    1.3600: real time    1.3611

 eigenvalue-minimisations  :  1224
 total energy-change (2. order) : 0.2518965E-03  (-0.3628089E-04)
 number of electron      60.0000003 magnetization 
 augmentation part       -6.4475569 magnetization 

 Broyden mixing:
  rms(total) = 0.14702E-01    rms(broyden)= 0.14702E-01
  rms(prec ) = 0.15182E-01
  weight for this iteration     100.00

 eigenvalues of (default mixing * dielectric matrix)
  average eigenvalue GAMMA=   1.7664
  2.5435  2.5435  1.4624  1.1414  1.1414

 Free energy of the ion-electron system (eV)
  ---------------------------------------------------
  alpha Z        PSCENC =        30.28014394
  Ewald energy   TEWEN  =     14973.24208224
  -Hartree energ DENC   =    -16962.85127480
  -exchange      EXHF   =         0.00000000
  -V(xc)+E(xc)   XCENC  =        43.09256971
  PAW double counting   =      6251.05536604    -6154.04255596
  entropy T*S    EENTRO =        -0.00000004
  eigenvalues    EBANDS =      -357.62817487
  atomic energy  EATOM  =      2112.51083163
  Solvation  Ediel_sol  =         0.00000000
  ---------------------------------------------------
  free energy    TOTEN  =       -64.34101212 eV

  energy without entropy =      -64.34101208  energy(sigma->0) =      -64.34101210


--------------------------------------------------------------------------------------------------------




--------------------------------------- Iteration      1(  11)  ---------------------------------------


    POTLOK:  cpu time    0.0359: real time    0.0381
    SETDIJ:  cpu time    0.0663: real time    0.0663
     EDDAV:  cpu time    1.1911: real time    1.1922
       DOS:  cpu time    0.0005: real time    0.0005
    CHARGE:  cpu time    0.0628: real time    0.0628
    MIXING:  cpu time    0.0012: real time    0.0012
    --------------------------------------------
      LOOP:  cpu time    1.3577: real time    1.3611

 eigenvalue-minimisations  :  1224
 total energy-change (2. order) : 0.2824482E-03  (-0.4025394E-04)
 number of electron      60.0000003 magnetization 
 augmentation part       -6.4471495 magnetization 

 Broyden mixing:
  rms(total) = 0.49499E-02    rms(broyden)= 0.49499E-02
  rms(prec ) = 0.54531E-02
  weight for this iteration     100.00

 eigenvalues of (default mixing * dielectric matrix)
  average eigenvalue GAMMA=   1.6984
  2.5671  2.5671  1.5256  1.0260  1.2523  1.2523

 Free energy of the ion-electron system (eV)
  ---------------------------------------------------
  alpha Z        PSCENC =        30.28014394
  Ewald energy   TEWEN  =     14973.24208224
  -Hartree energ DENC   =    -16964.79625303
  -exchange      EXHF   =         0.00000000
  -V(xc)+E(xc)   XCENC  =        43.12513348
  PAW double counting   =      6270.44800664    -6173.42909068
  entropy T*S    EENTRO =        -0.00000005
  eigenvalues    EBANDS =      -355.72158384
  atomic energy  EATOM  =      2112.51083163
  Solvation  Ediel_sol  =         0.00000000
  ---------------------------------------------------
  free energy    TOTEN  =       -64.34072967 eV

  energy without entropy =      -64.34072962  energy(sigma->0) =      -64.34072965


--------------------------------------------------------------------------------------------------------




--------------------------------------- Iteration      1(  12)  ---------------------------------------


    POTLOK:  cpu time    0.0360: real time    0.0377
    SETDIJ:  cpu time    0.0663: real time    0.0663
     EDDAV:  cpu time    1.2614: real time    1.2822
       DOS:  cpu time    0.0005: real time    0.0005
    CHARGE:  cpu time    0.0643: real time    0.0644
    MIXING:  cpu time    0.0014: real time    0.0014
    --------------------------------------------
      LOOP:  cpu time    1.4300: real time    1.4526

 eigenvalue-minimisations  :  1208
 total energy-change (2. order) :-0.1251000E-03  (-0.8931618E-05)
 number of electron      60.0000003 magnetization 
 augmentation part       -6.4469907 magnetization 

 Broyden mixing:
  rms(total) = 0.19784E-02    rms(broyden)= 0.19784E-02
  rms(prec ) = 0.25216E-02
  weight for this iteration     100.00

 eigenvalues of (default mixing * dielectric matrix)
  average eigenvalue GAMMA=   1.8635
  3.3738  2.5942  1.8333  1.8333  1.2361  1.2361  0.9375

 Free energy of the ion-electron system (eV)
  ---------------------------------------------------
  alpha Z        PSCENC =        30.28014394
  Ewald energy   TEWEN  =     14973.24208224
  -Hartree energ DENC   =    -16965.82871019
  -exchange      EXHF   =         0.00000000
  -V(xc)+E(xc)   XCENC  =        43.13252710
  PAW double counting   =      6279.45438966    -6182.43559491
  entropy T*S    EENTRO =        -0.00000005
  eigenvalues    EBANDS =      -354.69652418
  atomic energy  EATOM  =      2112.51083163
  Solvation  Ediel_sol  =         0.00000000
  ---------------------------------------------------
  free energy    TOTEN  =       -64.34085477 eV

  energy without entropy =      -64.34085472  energy(sigma->0) =      -64.34085474


--------------------------------------------------------------------------------------------------------




--------------------------------------- Iteration      1(  13)  ---------------------------------------


    POTLOK:  cpu time    0.0363: real time    0.0383
    SETDIJ:  cpu time    0.0667: real time    0.0667
     EDDAV:  cpu time    1.1686: real time    1.1697
       DOS:  cpu time    0.0005: real time    0.0005
    CHARGE:  cpu time    0.0636: real time    0.0636
    MIXING:  cpu time    0.0015: real time    0.0015
    --------------------------------------------
      LOOP:  cpu time    1.3372: real time    1.3403

 eigenvalue-minimisations  :  1168
 total energy-change (2. order) :-0.2195277E-03  (-0.8368942E-05)
 number of electron      60.0000003 magnetization 
 augmentation part       -6.4468098 magnetization 

 Broyden mixing:
  rms(total) = 0.54788E-02    rms(broyden)= 0.54788E-02
  rms(prec ) = 0.55404E-02
  weight for this iteration     100.00

 eigenvalues of (default mixing * dielectric matrix)
  average eigenvalue GAMMA=   1.7445
  3.1604  2.4227  2.4227  1.7515  1.0655  1.0655  1.0339  1.0339

 Free energy of the ion-electron system (eV)
  ---------------------------------------------------
  alpha Z        PSCENC =        30.28014394
  Ewald energy   TEWEN  =     14973.24208224
  -Hartree energ DENC   =    -16967.06317650
  -exchange      EXHF   =         0.00000000
  -V(xc)+E(xc)   XCENC  =        43.14243291
  PAW double counting   =      6287.02541674    -6190.00610339
  entropy T*S    EENTRO =        -0.00000006
  eigenvalues    EBANDS =      -353.47270181
  atomic energy  EATOM  =      2112.51083163
  Solvation  Ediel_sol  =         0.00000000
  ---------------------------------------------------
  free energy    TOTEN  =       -64.34107430 eV

  energy without entropy =      -64.34107424  energy(sigma->0) =      -64.34107427


--------------------------------------------------------------------------------------------------------




--------------------------------------- Iteration      1(  14)  ---------------------------------------


    POTLOK:  cpu time    0.0369: real time    0.0391
    SETDIJ:  cpu time    0.0664: real time    0.0664
     EDDAV:  cpu time    0.9181: real time    0.9190
       DOS:  cpu time    0.0005: real time    0.0005
    CHARGE:  cpu time    0.0631: real time    0.0631
    MIXING:  cpu time    0.0016: real time    0.0016
    --------------------------------------------
      LOOP:  cpu time    1.0866: real time    1.0897

 eigenvalue-minimisations  :   824
 total energy-change (2. order) :-0.7552924E-04  (-0.7731472E-06)
 number of electron      60.0000003 magnetization 
 augmentation part       -6.4467702 magnetization 

 Broyden mixing:
  rms(total) = 0.43037E-02    rms(broyden)= 0.43037E-02
  rms(prec ) = 0.43645E-02
  weight for this iteration     100.00

 eigenvalues of (default mixing * dielectric matrix)
  average eigenvalue GAMMA=   1.6755
  2.8606  2.3001  2.3001  2.0185  1.3245  1.3245  1.0849  1.0849  0.7813

 Free energy of the ion-electron system (eV)
  ---------------------------------------------------
  alpha Z        PSCENC =        30.28014394
  Ewald energy   TEWEN  =     14973.24208224
  -Hartree energ DENC   =    -16967.21138980
  -exchange      EXHF   =         0.00000000
  -V(xc)+E(xc)   XCENC  =        43.14248185
  PAW double counting   =      6284.80999828    -6187.79109055
  entropy T*S    EENTRO =        -0.00000006
  eigenvalues    EBANDS =      -353.32420736
  atomic energy  EATOM  =      2112.51083163
  Solvation  Ediel_sol  =         0.00000000
  ---------------------------------------------------
  free energy    TOTEN  =       -64.34114983 eV

  energy without entropy =      -64.34114977  energy(sigma->0) =      -64.34114980


--------------------------------------------------------------------------------------------------------




--------------------------------------- Iteration      1(  15)  ---------------------------------------


    POTLOK:  cpu time    0.0357: real time    0.0371
    SETDIJ:  cpu time    0.0664: real time    0.0664
     EDDAV:  cpu time    0.9324: real time    0.9334
       DOS:  cpu time    0.0005: real time    0.0005
    CHARGE:  cpu time    0.0657: real time    0.0658
    MIXING:  cpu time    0.0015: real time    0.0015
    --------------------------------------------
      LOOP:  cpu time    1.1022: real time    1.1046

 eigenvalue-minimisations  :   856
 total energy-change (2. order) :-0.1712582E-03  (-0.1052685E-05)
 number of electron      60.0000003 magnetization 
 augmentation part       -6.4467346 magnetization 

 Broyden mixing:
  rms(total) = 0.10109E-02    rms(broyden)= 0.10109E-02
  rms(prec ) = 0.11340E-02
  weight for this iteration     100.00

 eigenvalues of (default mixing * dielectric matrix)
  average eigenvalue GAMMA=   2.0222
  5.8582  2.5668  2.5668  1.9433  1.9433  1.2851  1.2851  1.0555  0.8589  0.8589

 Free energy of the ion-electron system (eV)
  ---------------------------------------------------
  alpha Z        PSCENC =        30.28014394
  Ewald energy   TEWEN  =     14973.24208224
  -Hartree energ DENC   =    -16967.48345209
  -exchange      EXHF   =         0.00000000
  -V(xc)+E(xc)   XCENC  =        43.14106388
  PAW double counting   =      6275.05533231    -6178.03639111
  entropy T*S    EENTRO =        -0.00000007
  eigenvalues    EBANDS =      -353.05093180
  atomic energy  EATOM  =      2112.51083163
  Solvation  Ediel_sol  =         0.00000000
  ---------------------------------------------------
  free energy    TOTEN  =       -64.34132109 eV

  energy without entropy =      -64.34132102  energy(sigma->0) =      -64.34132105


--------------------------------------------------------------------------------------------------------




--------------------------------------- Iteration      1(  16)  ---------------------------------------


    POTLOK:  cpu time    0.0360: real time    0.0377
    SETDIJ:  cpu time    0.0664: real time    0.0664
     EDDAV:  cpu time    1.0134: real time    1.0144
       DOS:  cpu time    0.0005: real time    0.0005
    CHARGE:  cpu time    0.0634: real time    0.0635
    MIXING:  cpu time    0.0016: real time    0.0016
    --------------------------------------------
      LOOP:  cpu time    1.1814: real time    1.1841

 eigenvalue-minimisations  :   976
 total energy-change (2. order) :-0.1526515E-03  (-0.2500338E-05)
 number of electron      60.0000003 magnetization 
 augmentation part       -6.4466768 magnetization 

 Broyden mixing:
  rms(total) = 0.31649E-02    rms(broyden)= 0.31649E-02
  rms(prec ) = 0.31723E-02
  weight for this iteration     100.00

 eigenvalues of (default mixing * dielectric matrix)
  average eigenvalue GAMMA=   1.8588
  5.8786  2.6326  2.2609  1.9395  1.9395  1.2852  1.2852  1.1019  0.8603  0.6318
  0.6318

 Free energy of the ion-electron system (eV)
  ---------------------------------------------------
  alpha Z        PSCENC =        30.28014394
  Ewald energy   TEWEN  =     14973.24208224
  -Hartree energ DENC   =    -16968.10101814
  -exchange      EXHF   =         0.00000000
  -V(xc)+E(xc)   XCENC  =        43.14227190
  PAW double counting   =      6270.06909822    -6173.04966649
  entropy T*S    EENTRO =        -0.00000007
  eigenvalues    EBANDS =      -352.43521697
  atomic energy  EATOM  =      2112.51083163
  Solvation  Ediel_sol  =         0.00000000
  ---------------------------------------------------
  free energy    TOTEN  =       -64.34147374 eV

  energy without entropy =      -64.34147367  energy(sigma->0) =      -64.34147370


--------------------------------------------------------------------------------------------------------




--------------------------------------- Iteration      1(  17)  ---------------------------------------


    POTLOK:  cpu time    0.0364: real time    0.0384
    SETDIJ:  cpu time    0.0663: real time    0.0663
     EDDAV:  cpu time    0.8816: real time    0.8827
       DOS:  cpu time    0.0005: real time    0.0005
    --------------------------------------------
      LOOP:  cpu time    1.0690: real time    1.0722

 eigenvalue-minimisations  :   776
 total energy-change (2. order) :-0.1486698E-05  (-0.1069976E-06)
 number of electron      60.0000003 magnetization 
 augmentation part       -6.4466768 magnetization 

 Free energy of the ion-electron system (eV)
  ---------------------------------------------------
  alpha Z        PSCENC =        30.28014394
  Ewald energy   TEWEN  =     14973.24208224
  -Hartree energ DENC   =    -16968.11150882
  -exchange      EXHF   =         0.00000000
  -V(xc)+E(xc)   XCENC  =        43.14250555
  PAW double counting   =      6271.22229399    -6174.20283779
  entropy T*S    EENTRO =        -0.00000007
  eigenvalues    EBANDS =      -352.42498589
  atomic energy  EATOM  =      2112.51083163
  Solvation  Ediel_sol  =         0.00000000
  ---------------------------------------------------
  free energy    TOTEN  =       -64.34147522 eV

  energy without entropy =      -64.34147516  energy(sigma->0) =      -64.34147519


--------------------------------------------------------------------------------------------------------




 the core state eigenenergies are
   1-  1s  -2078.3896  2s   -168.4217  2p   -118.9072
   2-  1s  -2078.3896  2s   -168.4217  2p   -118.9072
   3-  1s  -2078.4490  2s   -168.4750  2p   -118.9610
   4-  1s  -2078.4490  2s   -168.4750  2p   -118.9610
   5-  1s  -2078.4774  2s   -168.5047  2p   -118.9906
   6-  1s  -2078.4774  2s   -168.5047  2p   -118.9906
   7-  1s  -2078.4774  2s   -168.5047  2p   -118.9906
   8-  1s  -2078.4774  2s   -168.5047  2p   -118.9906
   9-  1s  -2078.4490  2s   -168.4750  2p   -118.9610
  10-  1s  -2078.4490  2s   -168.4750  2p   -118.9610
  11-  1s  -2078.3896  2s   -168.4217  2p   -118.9072
  12-  1s  -2078.3896  2s   -168.4217  2p   -118.9072
 
 E-fermi :   0.9378     XC(G=0):  -5.1408     alpha+bet : -5.5572


 k-point     1 :       0.0000    0.0000    0.0000
  band No.  band energies     occupation 
      1     -14.8556      2.00000
      2     -14.7356      2.00000
      3     -14.6668      2.00000
      4     -12.3747      2.00000
      5     -12.1291      2.00000
      6     -11.9491      2.00000
      7      -8.6075      2.00000
      8      -8.5237      2.00000
      9      -8.4933      2.00000
     10      -5.9256      2.00000
     11      -5.5469      2.00000
     12      -5.1286      2.00000
     13      -4.5065      2.00000
     14      -4.5064      2.00000
     15      -4.1891      2.00000
     16      -4.1446      2.00000
     17      -3.9972      2.00000
     18      -3.9231      2.00000
     19      -3.3951      2.00000
     20      -3.2946      2.00000
     21      -3.2446      2.00000
     22      -1.8813      2.00000
     23      -1.7379      2.00000
     24      -1.6263      2.00000
     25      -1.5912      2.00000
     26      -1.5059      2.00000
     27      -1.1095      2.00000
     28      -0.2512      2.00000
     29       0.3525      2.00000
     30       0.9080      1.99997
     31       0.9676      0.00003
     32       1.4952      0.00000
     33       1.5212      0.00000
     34       1.6958      0.00000
     35       1.7033      0.00000
     36       1.8592      0.00000
     37       2.7286      0.00000
     38       2.8989      0.00000
     39       2.9700      0.00000
     40       3.7346      0.00000

 k-point     2 :       0.1667    0.0000    0.0000
  band No.  band energies     occupation 
      1     -14.5321      2.00000
      2     -14.4133      2.00000
      3     -14.3457      2.00000
      4     -12.0380      2.00000
      5     -11.7938      2.00000
      6     -11.6149      2.00000
      7      -8.9001      2.00000
      8      -8.8394      2.00000
      9      -8.8333      2.00000
     10      -5.6526      2.00000
     11      -5.2816      2.00000
     12      -4.9736      2.00000
     13      -4.8929      2.00000
     14      -4.8863      2.00000
     15      -4.8549      2.00000
     16      -4.4298      2.00000
     17      -4.3566      2.00000
     18      -4.3459      2.00000
     19      -4.2204      2.00000
     20      -3.8759      2.00000
     21      -3.7317      2.00000
     22      -2.6630      2.00000
     23      -2.5128      2.00000
     24      -2.3475      2.00000
     25      -1.7433      2.00000
     26      -1.4721      2.00000
     27      -0.9695      2.00000
     28      -0.2152      2.00000
     29       0.1850      2.00000
     30       0.4554      2.00000
     31       1.2509      0.00000
     32       1.6555      0.00000
     33       1.8799      0.00000
     34       2.3374      0.00000
     35       2.5493      0.00000
     36       2.5738      0.00000
     37       3.7483      0.00000
     38       3.8737      0.00000
     39       3.9784      0.00000
     40       4.2663      0.00000

 k-point     3 :       0.3333    0.0000    0.0000
  band No.  band energies     occupation 
      1     -13.5790      2.00000
      2     -13.4643      2.00000
      3     -13.4011      2.00000
      4     -11.0364      2.00000
      5     -10.7969      2.00000
      6     -10.6217      2.00000
      7     -10.2427      2.00000
      8     -10.1637      2.00000
      9     -10.1386      2.00000
     10      -7.2224      2.00000
     11      -7.0265      2.00000
     12      -6.8882      2.00000
     13      -4.9319      2.00000
     14      -4.9069      2.00000
     15      -4.8509      2.00000
     16      -4.8418      2.00000
     17      -4.6067      2.00000
     18      -4.3172      2.00000
     19      -3.4275      2.00000
     20      -3.1583      2.00000
     21      -3.0352      2.00000
     22      -2.6870      2.00000
     23      -2.3977      2.00000
     24      -2.1632      2.00000
     25      -1.7922      2.00000
     26      -1.5232      2.00000
     27      -1.1915      2.00000
     28      -0.8946      2.00000
     29      -0.7550      2.00000
     30      -0.6915      2.00000
     31       1.1097      0.00000
     32       1.1709      0.00000
     33       1.4326      0.00000
     34       2.0718      0.00000
     35       2.2836      0.00000
     36       2.6010      0.00000
     37       2.6443      0.00000
     38       2.6603      0.00000
     39       2.6676      0.00000
     40       2.9510      0.00000

 k-point     4 :       0.5000    0.0000    0.0000
  band No.  band energies     occupation 
      1     -12.0685      2.00000
      2     -12.0685      2.00000
      3     -11.9638      2.00000
      4     -11.9638      2.00000
      5     -11.9113      2.00000
      6     -11.9113      2.00000
      7      -9.4010      2.00000
      8      -9.4010      2.00000
      9      -9.1726      2.00000
     10      -9.1726      2.00000
     11      -9.0063      2.00000
     12      -9.0063      2.00000
     13      -4.4708      2.00000
     14      -4.4708      2.00000
     15      -4.3367      2.00000
     16      -4.3367      2.00000
     17      -4.2910      2.00000
     18      -4.2910      2.00000
     19      -2.4686      2.00000
     20      -2.4686      2.00000
     21      -2.3952      2.00000
     22      -2.3952      2.00000
     23      -2.3949      2.00000
     24      -2.3949      2.00000
     25      -2.0120      2.00000
     26      -2.0120      2.00000
     27      -1.7415      2.00000
     28      -1.7415      2.00000
     29      -1.4893      2.00000
     30      -1.4893      2.00000
     31       1.6177      0.00000
     32       1.6177      0.00000
     33       1.6302      0.00000
     34       1.6302      0.00000
     35       1.7120      0.00000
     36       1.7120      0.00000
     37       2.1536      0.00000
     38       2.1543      0.00000
     39       2.1901      0.00000
     40       2.1908      0.00000

 k-point     5 :       0.0000    0.0000    0.2500
  band No.  band energies     occupation 
      1     -14.5042      2.00000
      2     -14.3914      2.00000
      3     -14.3303      2.00000
      4     -12.5970      2.00000
      5     -12.4635      2.00000
      6     -12.4027      2.00000
      7      -9.0069      2.00000
      8      -8.8503      2.00000
      9      -8.7277      2.00000
     10      -6.9132      2.00000
     11      -6.6405      2.00000
     12      -6.4725      2.00000
     13      -4.5501      2.00000
     14      -4.0392      2.00000
     15      -3.3773      2.00000
     16      -3.1179      2.00000
     17      -3.0649      2.00000
     18      -3.0258      2.00000
     19      -2.9848      2.00000
     20      -2.7198      2.00000
     21      -2.7191      2.00000
     22      -1.8663      2.00000
     23      -1.7660      2.00000
     24      -1.7349      2.00000
     25      -1.7273      2.00000
     26      -1.0764      2.00000
     27      -0.4274      2.00000
     28      -0.2686      2.00000
     29      -0.2062      2.00000
     30      -0.0287      2.00000
     31       1.6780      0.00000
     32       2.0044      0.00000
     33       2.1126      0.00000
     34       2.2060      0.00000
     35       2.2557      0.00000
     36       2.2588      0.00000
     37       2.3666      0.00000
     38       2.7070      0.00000
     39       3.2512      0.00000
     40       3.3099      0.00000

 k-point     6 :       0.1667    0.0000    0.2500
  band No.  band energies     occupation 
      1     -14.1854      2.00000
      2     -14.0738      2.00000
      3     -14.0140      2.00000
      4     -12.2811      2.00000
      5     -12.1519      2.00000
      6     -12.0953      2.00000
      7      -9.0406      2.00000
      8      -8.8885      2.00000
      9      -8.7752      2.00000
     10      -6.7973      2.00000
     11      -6.5678      2.00000
     12      -6.4210      2.00000
     13      -4.9871      2.00000
     14      -4.8466      2.00000
     15      -4.7177      2.00000
     16      -4.5129      2.00000
     17      -4.0391      2.00000
     18      -3.7248      2.00000
     19      -3.3143      2.00000
     20      -3.1991      2.00000
     21      -2.9155      2.00000
     22      -2.3371      2.00000
     23      -2.1663      2.00000
     24      -2.1450      2.00000
     25      -1.5004      2.00000
     26      -0.9530      2.00000
     27      -0.8623      2.00000
     28      -0.7323      2.00000
     29      -0.4619      2.00000
     30      -0.4136      2.00000
     31       2.0263      0.00000
     32       2.3112      0.00000
     33       2.5865      0.00000
     34       2.8617      0.00000
     35       3.0122      0.00000
     36       3.0642      0.00000
     37       3.3719      0.00000
     38       3.4966      0.00000
     39       3.6066      0.00000
     40       4.3232      0.00000

 k-point     7 :       0.3333    0.0000    0.2500
  band No.  band energies     occupation 
      1     -13.2543      2.00000
      2     -13.1474      2.00000
      3     -13.0924      2.00000
      4     -11.4377      2.00000
      5     -11.3356      2.00000
      6     -11.3025      2.00000
      7      -9.7511      2.00000
      8      -9.5913      2.00000
      9      -9.4815      2.00000
     10      -7.5250      2.00000
     11      -7.4382      2.00000
     12      -7.4176      2.00000
     13      -5.8340      2.00000
     14      -5.6664      2.00000
     15      -5.5331      2.00000
     16      -4.7984      2.00000
     17      -4.7544      2.00000
     18      -4.6793      2.00000
     19      -3.3928      2.00000
     20      -3.3123      2.00000
     21      -3.1788      2.00000
     22      -2.5137      2.00000
     23      -2.3697      2.00000
     24      -2.3650      2.00000
     25      -2.2372      2.00000
     26      -1.8492      2.00000
     27      -1.3316      2.00000
     28      -0.9612      2.00000
     29      -0.6613      2.00000
     30      -0.6253      2.00000
     31       1.7023      0.00000
     32       1.8304      0.00000
     33       2.0252      0.00000
     34       2.5134      0.00000
     35       2.7038      0.00000
     36       2.9599      0.00000
     37       3.1510      0.00000
     38       3.3289      0.00000
     39       3.3707      0.00000
     40       3.8730      0.00000

 k-point     8 :       0.5000    0.0000    0.2500
  band No.  band energies     occupation 
      1     -11.8554      2.00000
      2     -11.8554      2.00000
      3     -11.7638      2.00000
      4     -11.7638      2.00000
      5     -11.7254      2.00000
      6     -11.7254      2.00000
      7      -9.4319      2.00000
      8      -9.4319      2.00000
      9      -9.2743      2.00000
     10      -9.2743      2.00000
     11      -9.1829      2.00000
     12      -9.1829      2.00000
     13      -5.0187      2.00000
     14      -5.0187      2.00000
     15      -4.8292      2.00000
     16      -4.8292      2.00000
     17      -4.6775      2.00000
     18      -4.6775      2.00000
     19      -3.6877      2.00000
     20      -3.6877      2.00000
     21      -3.4435      2.00000
     22      -3.4435      2.00000
     23      -3.3103      2.00000
     24      -3.3103      2.00000
     25      -1.5506      2.00000
     26      -1.5506      2.00000
     27      -1.2072      2.00000
     28      -1.2072      2.00000
     29      -0.9113      2.00000
     30      -0.9113      2.00000
     31       2.0040      0.00000
     32       2.0040      0.00000
     33       2.3068      0.00000
     34       2.3068      0.00000
     35       2.4536      0.00000
     36       2.4536      0.00000
     37       3.1785      0.00000
     38       3.1785      0.00000
     39       3.4024      0.00000
     40       3.4024      0.00000

 k-point     9 :       0.0000    0.0000    0.5000
  band No.  band energies     occupation 
      1     -13.5478      2.00000
      2     -13.5478      2.00000
      3     -13.4783      2.00000
      4     -13.4783      2.00000
      5     -13.4319      2.00000
      6     -13.4319      2.00000
      7      -8.5723      2.00000
      8      -8.5723      2.00000
      9      -8.2559      2.00000
     10      -8.2559      2.00000
     11      -7.9822      2.00000
     12      -7.9822      2.00000
     13      -3.5925      2.00000
     14      -3.5925      2.00000
     15      -2.8298      2.00000
     16      -2.8298      2.00000
     17      -2.4238      2.00000
     18      -2.4238      2.00000
     19      -2.3804      2.00000
     20      -2.3804      2.00000
     21      -2.3350      2.00000
     22      -2.3350      2.00000
     23      -2.0246      2.00000
     24      -2.0246      2.00000
     25      -0.7290      2.00000
     26      -0.7290      2.00000
     27      -0.5213      2.00000
     28      -0.5213      2.00000
     29      -0.4487      2.00000
     30      -0.4487      2.00000
     31       2.1889      0.00000
     32       2.1889      0.00000
     33       2.2320      0.00000
     34       2.2320      0.00000
     35       2.2845      0.00000
     36       2.2845      0.00000
     37       3.4166      0.00000
     38       3.4176      0.00000
     39       3.5636      0.00000
     40       3.5811      0.00000

 k-point    10 :       0.1667    0.0000    0.5000
  band No.  band energies     occupation 
      1     -13.2417      2.00000
      2     -13.2417      2.00000
      3     -13.1724      2.00000
      4     -13.1724      2.00000
      5     -13.1270      2.00000
      6     -13.1270      2.00000
      7      -8.4275      2.00000
      8      -8.4275      2.00000
      9      -8.1374      2.00000
     10      -8.1374      2.00000
     11      -7.8967      2.00000
     12      -7.8967      2.00000
     13      -4.3711      2.00000
     14      -4.3711      2.00000
     15      -4.2653      2.00000
     16      -4.2653      2.00000
     17      -4.1670      2.00000
     18      -4.1670      2.00000
     19      -3.3524      2.00000
     20      -3.3524      2.00000
     21      -2.6393      2.00000
     22      -2.6393      2.00000
     23      -1.9693      2.00000
     24      -1.9693      2.00000
     25      -0.8133      2.00000
     26      -0.8133      2.00000
     27      -0.6464      2.00000
     28      -0.6464      2.00000
     29      -0.4929      2.00000
     30      -0.4929      2.00000
     31       2.8438      0.00000
     32       2.8438      0.00000
     33       2.9819      0.00000
     34       2.9819      0.00000
     35       3.0951      0.00000
     36       3.0951      0.00000
     37       3.5123      0.00000
     38       3.5123      0.00000
     39       3.9730      0.00000
     40       3.9730      0.00000

 k-point    11 :       0.3333    0.0000    0.5000
  band No.  band energies     occupation 
      1     -12.3838      2.00000
      2     -12.3838      2.00000
      3     -12.3166      2.00000
      4     -12.3166      2.00000
      5     -12.2765      2.00000
      6     -12.2765      2.00000
      7      -8.6646      2.00000
      8      -8.6646      2.00000
      9      -8.5152      2.00000
     10      -8.5152      2.00000
     11      -8.4293      2.00000
     12      -8.4293      2.00000
     13      -5.7971      2.00000
     14      -5.7971      2.00000
     15      -5.5460      2.00000
     16      -5.5460      2.00000
     17      -5.3212      2.00000
     18      -5.3212      2.00000
     19      -3.4365      2.00000
     20      -3.4365      2.00000
     21      -3.0702      2.00000
     22      -3.0702      2.00000
     23      -2.7870      2.00000
     24      -2.7870      2.00000
     25      -1.8744      2.00000
     26      -1.8744      2.00000
     27      -1.3289      2.00000
     28      -1.3289      2.00000
     29      -0.8299      2.00000
     30      -0.8299      2.00000
     31       2.6908      0.00000
     32       2.6908      0.00000
     33       3.2772      0.00000
     34       3.2772      0.00000
     35       3.9550      0.00000
     36       3.9553      0.00000
     37       3.9818      0.00000
     38       3.9830      0.00000
     39       4.0858      0.00000
     40       4.0872      0.00000

 k-point    12 :       0.5000    0.0000    0.5000
  band No.  band energies     occupation 
      1     -11.5672      2.00000
      2     -11.5672      2.00000
      3     -11.5118      2.00000
      4     -11.5118      2.00000
      5     -11.5116      2.00000
      6     -11.5116      2.00000
      7      -9.5305      2.00000
      8      -9.5305      2.00000
      9      -9.4676      2.00000
     10      -9.4676      2.00000
     11      -9.4663      2.00000
     12      -9.4663      2.00000
     13      -4.9621      2.00000
     14      -4.9621      2.00000
     15      -4.9474      2.00000
     16      -4.9474      2.00000
     17      -4.6726      2.00000
     18      -4.6726      2.00000
     19      -4.6190      2.00000
     20      -4.6190      2.00000
     21      -4.3767      2.00000
     22      -4.3767      2.00000
     23      -4.3760      2.00000
     24      -4.3760      2.00000
     25      -1.2357      2.00000
     26      -1.2357      2.00000
     27      -1.1819      2.00000
     28      -1.1819      2.00000
     29      -1.0534      2.00000
     30      -1.0534      2.00000
     31       2.6243      0.00000
     32       2.6243      0.00000
     33       2.7575      0.00000
     34       2.7575      0.00000
     35       2.8959      0.00000
     36       2.8959      0.00000
     37       4.8082      0.00000
     38       4.8313      0.00000
     39       4.8630      0.00000
     40       4.8667      0.00000


--------------------------------------------------------------------------------------------------------


 soft charge-density along one line, spin component           1
         0         1         2         3         4         5         6         7         8         9
 total charge-density along one line
 
 pseudopotential strength for first ion, spin component:           1
 29.686  37.032   0.035  -0.033   0.000   0.055  -0.051  -0.000
 37.032  46.200   0.044  -0.041  -0.000   0.068  -0.064   0.000
  0.035   0.044   6.554   0.006  -0.000  10.135   0.009  -0.000
 -0.033  -0.041   0.006   6.558  -0.000   0.009  10.141  -0.000
  0.000  -0.000  -0.000  -0.000   6.562  -0.000  -0.000  10.148
  0.055   0.068  10.135   0.009  -0.000  15.692   0.014  -0.000
 -0.051  -0.064   0.009  10.141  -0.000   0.014  15.701  -0.000
 -0.000   0.000  -0.000  -0.000  10.148  -0.000  -0.000  15.711
 total augmentation occupancy for first ion, spin component:           1
  8.275  -4.720   1.855  -1.945   0.000  -0.591   0.649  -0.000
 -4.720   3.435  -1.594   1.650   0.000   0.437  -0.476   0.000
  1.855  -1.594   3.129   0.195   0.000  -0.824  -0.162   0.000
 -1.945   1.650   0.195   3.270   0.000  -0.161  -0.923   0.000
  0.000  -0.000   0.000   0.000   3.400   0.000  -0.000  -1.026
 -0.591   0.437  -0.824  -0.161   0.000   0.259   0.070   0.000
  0.649  -0.476  -0.162  -0.923   0.000   0.070   0.298  -0.000
  0.000   0.000   0.000   0.000  -1.026   0.000  -0.000   0.339


------------------------ aborting loop because EDIFF is reached ----------------------------------------


 


 total charge     
 
# of ion       s       p       d       tot
------------------------------------------
    1        1.082   1.376   0.000   2.458
    2        1.082   1.376   0.000   2.458
    3        1.083   1.372   0.000   2.455
    4        1.083   1.372   0.000   2.455
    5        1.084   1.371   0.000   2.455
    6        1.084   1.371   0.000   2.455
    7        1.084   1.371   0.000   2.455
    8        1.084   1.371   0.000   2.455
    9        1.083   1.372   0.000   2.455
   10        1.083   1.372   0.000   2.455
   11        1.082   1.376   0.000   2.458
   12        1.082   1.376   0.000   2.458
--------------------------------------------------
tot         12.997  16.477   0.000  29.473
 
    CHARGE:  cpu time    0.0627: real time    0.0627
    FORLOC:  cpu time    0.0030: real time    0.0030
    FORNL :  cpu time    0.2607: real time    0.2607
    STRESS:  cpu time    0.4464: real time    0.4467
    FORCOR:  cpu time    0.0370: real time    0.0370
    FORHAR:  cpu time    0.0107: real time    0.0107
    MIXING:  cpu time    0.0016: real time    0.0016
    OFIELD:  cpu time    0.0001: real time    0.0001

  DFT-D2 method for vdW energy calculation
  -------------------------------------------------------------------

  Parameters of vdW forcefield:
         C6(Jnm^6/mol)     R0(A)
   -----------------------------
   P        7.840          1.705

  IVDW =  10
  VDW_RADIUS =    50.000 A
  VDW_S6 =     0.750
  VDW_SR =     1.000
  VDW_D =    20.000
  LVDW_EWALD = F

  Number of pair interactions contributing to vdW energy:   88382
  Edisp (eV):   -2.17394
    FORVDW:  cpu time    0.0521: real time    0.0525

  FORCE on cell =-STRESS in cart. coord.  units (eV):
  Direction    XX          YY          ZZ          XY          YZ          ZX
  --------------------------------------------------------------------------------------
  Alpha Z    30.28014    30.28014    30.28014
  Ewald   16591.01473-18044.25022 16426.47569    -0.00000     0.00000     0.00000
  Hartree 16898.20412-16770.94318 16841.02113    -0.00000    -0.00000    -0.00000
  E(xc)    -201.47177  -202.73062  -201.66201    -0.00000    -0.00000    -0.00000
  Local  -34440.88444 33820.48454-34239.55603     0.00000     0.00000    -0.00000
  n-local   679.66397   678.00993   674.49293    -0.00000     0.00000     1.46283
  augment  -126.46267  -130.49227  -128.83950     0.00000    -0.00000    -0.00000
  Kinetic   570.18617   620.11092   600.02917     0.00000     0.00000     6.08084
  Fock        0.00000     0.00000     0.00000     0.00000     0.00000     0.00000
  vdW        -0.23282    -1.41063    -0.99576    -0.00000    -0.00000     0.00000
  -------------------------------------------------------------------------------------
  Total       0.29743    -0.94139     1.24576     0.00000     0.00000     0.00000
  in kB       0.99946    -3.16336     4.18612     0.00000     0.00000     0.00000
  external pressure =        0.67 kB  Pullay stress =        0.00 kB


 VOLUME and BASIS-vectors are now :
 -----------------------------------------------------------------------------
  energy-cutoff  :      750.00
  volume of cell :      476.80
      direct lattice vectors                 reciprocal lattice vectors
     3.342886000  0.000000000  0.000000000     0.299142717  0.000000000  0.000000000
     0.000000000 32.602409000  0.000000000     0.000000000  0.030672580  0.000000000
     0.000000000  0.000000000  4.374831000     0.000000000  0.000000000  0.228580258

  length of vectors
     3.342886000 32.602409000  4.374831000     0.299142717  0.030672580  0.228580258


 FORCES acting on ions
    electron-ion (+dipol)            ewald-force                    non-local-force                 convergence-correction
 -----------------------------------------------------------------------------------------------
   0.787E-15 0.823E+03 -.291E+02   0.114E-14 -.828E+03 0.342E+02   -.278E-16 0.582E+01 -.517E+01   -.118E-14 0.114E-03 -.914E-03
   -.154E-13 0.823E+03 0.291E+02   -.458E-14 -.828E+03 -.342E+02   0.555E-16 0.582E+01 0.517E+01   0.723E-15 0.114E-03 0.914E-03
   0.136E-14 0.459E+03 0.260E+02   0.181E-14 -.453E+03 -.313E+02   -.278E-16 -.553E+01 0.522E+01   -.149E-14 -.279E-02 -.287E-03
   -.858E-14 0.459E+03 -.260E+02   -.613E-14 -.453E+03 0.313E+02   -.278E-16 -.553E+01 -.522E+01   0.123E-14 -.279E-02 0.287E-03
   -.812E-14 0.183E+03 -.262E+02   0.754E-15 -.189E+03 0.314E+02   0.000E+00 0.546E+01 -.521E+01   0.144E-14 0.477E-02 -.189E-02
   0.434E-14 0.183E+03 0.262E+02   -.638E-14 -.189E+03 -.314E+02   -.278E-16 0.546E+01 0.521E+01   -.165E-14 0.477E-02 0.189E-02
   -.109E-13 -.183E+03 0.262E+02   0.197E-14 0.189E+03 -.314E+02   0.000E+00 -.546E+01 0.521E+01   0.143E-14 -.477E-02 0.189E-02
   0.615E-14 -.183E+03 -.262E+02   -.498E-14 0.189E+03 0.314E+02   0.278E-16 -.546E+01 -.521E+01   -.176E-14 -.477E-02 -.189E-02
   0.384E-14 -.459E+03 -.260E+02   0.911E-15 0.453E+03 0.313E+02   0.278E-16 0.553E+01 -.522E+01   -.132E-14 0.279E-02 0.287E-03
   -.129E-13 -.459E+03 0.260E+02   -.523E-14 0.453E+03 -.313E+02   0.278E-16 0.553E+01 0.522E+01   0.128E-14 0.279E-02 -.287E-03
   0.433E-15 -.823E+03 0.291E+02   0.158E-14 0.828E+03 -.342E+02   0.278E-16 -.582E+01 0.517E+01   -.198E-14 -.114E-03 0.914E-03
   -.102E-13 -.823E+03 -.291E+02   -.679E-14 0.828E+03 0.342E+02   -.555E-16 -.582E+01 -.517E+01   0.115E-14 -.114E-03 -.914E-03
 -----------------------------------------------------------------------------------------------
   -.492E-13 0.111E-11 0.426E-10   -.259E-13 0.000E+00 -.711E-14   0.000E+00 0.355E-14 0.888E-15   -.211E-14 -.766E-12 -.150E-13
 
 
 POSITION                                       TOTAL-FORCE (eV/Angst)
 -----------------------------------------------------------------------------------
      0.00000     10.00001      4.02014         0.000000      0.081899     -0.038811
      1.67144     10.00001      2.54211         0.000000      0.081899      0.038811
      0.00000     12.14332      0.35469         0.000000     -0.078002     -0.021129
      1.67144     12.14332      1.83272         0.000000     -0.078002      0.021129
      1.67144     15.22953      4.02014         0.000000      0.038200      0.002303
      0.00000     15.22953      2.54211         0.000000      0.038200     -0.002303
      1.67144     17.37288      0.35469         0.000000     -0.038200     -0.002303
      0.00000     17.37288      1.83272         0.000000     -0.038200      0.002303
      0.00000     20.45909      4.02014         0.000000      0.078002      0.021129
      1.67144     20.45909      2.54211         0.000000      0.078002     -0.021129
      0.00000     22.60240      0.35469         0.000000     -0.081899      0.038811
      1.67144     22.60240      1.83272         0.000000     -0.081899     -0.038811
 -----------------------------------------------------------------------------------
    total drift:                               -0.000000      0.000000      0.000000


--------------------------------------------------------------------------------------------------------



  FREE ENERGIE OF THE ION-ELECTRON SYSTEM (eV)
  ---------------------------------------------------
  free  energy   TOTEN  =       -66.51541475 eV

  energy  without entropy=      -66.51541468  energy(sigma->0) =      -66.51541471
 


--------------------------------------------------------------------------------------------------------


    POTLOK:  cpu time    0.1405: real time    0.1406


--------------------------------------------------------------------------------------------------------


 writing wavefunctions
     LOOP+:  cpu time   25.4015: real time   25.5138
    4ORBIT:  cpu time    0.0000: real time    0.0000
 


 total charge     
 
# of ion       s       p       d       tot
------------------------------------------
    1        1.082   1.376   0.000   2.458
    2        1.082   1.376   0.000   2.458
    3        1.083   1.372   0.000   2.455
    4        1.083   1.372   0.000   2.455
    5        1.084   1.371   0.000   2.455
    6        1.084   1.371   0.000   2.455
    7        1.084   1.371   0.000   2.455
    8        1.084   1.371   0.000   2.455
    9        1.083   1.372   0.000   2.455
   10        1.083   1.372   0.000   2.455
   11        1.082   1.376   0.000   2.458
   12        1.082   1.376   0.000   2.458
--------------------------------------------------
tot         12.997  16.477   0.000  29.473
 

 total amount of memory used by VASP MPI-rank0    43919. kBytes
=======================================================================

   base      :      30000. kBytes
   nonl-proj :       2684. kBytes
   fftplans  :       2376. kBytes
   grid      :       3454. kBytes
   one-center:          6. kBytes
   wavefun   :       5399. kBytes
 
  
  
 General timing and accounting informations for this job:
 ========================================================
  
                  Total CPU time used (sec):       35.239
                            User time (sec):       28.058
                          System time (sec):        7.181
                         Elapsed time (sec):       35.696
  
                   Maximum memory used (kb):      118752.
                   Average memory used (kb):           0.
  
                          Minor page faults:        48307
                          Major page faults:            0
                 Voluntary context switches:         2620
