<?xml version="1.0" encoding="ISO-8859-1"?>
<modeling>
 <generator>
  <i name="program" type="string">vasp </i>
  <i name="version" type="string">5.4.4.18Apr17-6-g9f103f2a35  </i>
  <i name="subversion" type="string">(build Jun 20 2017 18:00:50) complex            parallel </i>
  <i name="platform" type="string">LinuxIFC </i>
  <i name="date" type="string">2018 03 16 </i>
  <i name="time" type="string">16:02:42 </i>
 </generator>
 <incar>
  <i type="string" name="SYSTEM"> Generic Input</i>
  <i type="int" name="ISTART">     1</i>
  <i type="string" name="PREC">normal    ! precision level</i>
  <i type="int" name="IALGO">    53</i>
  <i type="string" name="ALGO"> Normal    ! SCF minimisation algorithm</i>
  <i type="int" name="INIWAV">     1</i>
  <i type="int" name="NELM">   200</i>
  <i type="int" name="NELMIN">     2</i>
  <i type="int" name="IBRION">     2</i>
  <i name="EDIFF">      0.00001000</i>
  <i name="EDIFFG">     -0.02000000</i>
  <i type="int" name="NSW">     0</i>
  <i type="int" name="ISIF">     3</i>
  <i type="int" name="IWAVPR">    11</i>
  <i type="int" name="NBLOCK">     1</i>
  <i type="int" name="KBLOCK">    40</i>
  <i name="ENCUT">    750.00000000</i>
  <i type="int" name="NEDOS">  2000</i>
  <i type="int" name="ISMEAR">     0</i>
  <i name="SIGMA">      0.01000000</i>
  <i type="int" name="NWRITE">     2</i>
  <i type="logical" name="LVHAR"> T  </i>
  <i type="int" name="LORBIT">    11</i>
  <i type="logical" name="LASPH"> T  </i>
  <i type="int" name="ICORELEVEL">     1</i>
  <v type="int" name="KPOINT_BSE">    -1     0     0     0</v>
  <i type="int" name="NELM">   200</i>
  <i type="string" name="GGA"> PE        ! PBEsol exchange-correlation</i>
  <i type="logical" name="LASPH"> T  </i>
 </incar>
 <structure name="primitive_cell" >
  <crystal>
   <varray name="basis" >
    <v>       3.34288600       0.00000000       0.00000000 </v>
    <v>       0.00000000      32.60240900       0.00000000 </v>
    <v>       0.00000000       0.00000000       4.37483100 </v>
   </varray>
   <i name="volume">    476.79592902 </i>
   <varray name="rec_basis" >
    <v>       0.29914272       0.00000000       0.00000000 </v>
    <v>       0.00000000       0.03067258       0.00000000 </v>
    <v>       0.00000000       0.00000000       0.22858026 </v>
   </varray>
  </crystal>
  <varray name="positions" >
   <v>       0.00000000       0.30672600      -0.08107600 </v>
   <v>      -0.50000000       0.30672600      -0.41892400 </v>
   <v>       0.00000000       0.37246700       0.08107600 </v>
   <v>      -0.50000000       0.37246700       0.41892400 </v>
   <v>       0.00000000       0.46712900      -0.41892400 </v>
   <v>      -0.50000000       0.46712900      -0.08107600 </v>
   <v>      -0.50000000      -0.46712900       0.08107600 </v>
   <v>       0.00000000      -0.46712900       0.41892400 </v>
   <v>       0.00000000      -0.37246700      -0.08107600 </v>
   <v>      -0.50000000      -0.37246700      -0.41892400 </v>
   <v>       0.00000000      -0.30672600       0.08107600 </v>
   <v>      -0.50000000      -0.30672600       0.41892400 </v>
  </varray>
 </structure>
 <varray name="primitive_index" >
  <v type="int" >        1 </v>
  <v type="int" >        2 </v>
  <v type="int" >        3 </v>
  <v type="int" >        4 </v>
  <v type="int" >        6 </v>
  <v type="int" >        5 </v>
  <v type="int" >        7 </v>
  <v type="int" >        8 </v>
  <v type="int" >        9 </v>
  <v type="int" >       10 </v>
  <v type="int" >       11 </v>
  <v type="int" >       12 </v>
 </varray>
 <kpoints>
  <generation param="Gamma">
   <v type="int" name="divisions">       6        1        4 </v>
   <v name="usershift">      0.00000000       0.00000000       0.00000000 </v>
   <v name="genvec1">      0.16666667       0.00000000       0.00000000 </v>
   <v name="genvec2">      0.00000000       1.00000000       0.00000000 </v>
   <v name="genvec3">      0.00000000       0.00000000       0.25000000 </v>
   <v name="shift">      0.00000000       0.00000000       0.00000000 </v>
  </generation>
  <varray name="kpointlist" >
   <v>       0.00000000       0.00000000       0.00000000 </v>
   <v>       0.16666667       0.00000000       0.00000000 </v>
   <v>       0.33333333       0.00000000       0.00000000 </v>
   <v>       0.50000000       0.00000000       0.00000000 </v>
   <v>       0.00000000       0.00000000       0.25000000 </v>
   <v>       0.16666667       0.00000000       0.25000000 </v>
   <v>       0.33333333       0.00000000       0.25000000 </v>
   <v>       0.50000000       0.00000000       0.25000000 </v>
   <v>       0.00000000       0.00000000       0.50000000 </v>
   <v>       0.16666667       0.00000000       0.50000000 </v>
   <v>       0.33333333       0.00000000       0.50000000 </v>
   <v>       0.50000000       0.00000000       0.50000000 </v>
  </varray>
  <varray name="weights" >
   <v>       0.04166667 </v>
   <v>       0.08333333 </v>
   <v>       0.08333333 </v>
   <v>       0.04166667 </v>
   <v>       0.08333333 </v>
   <v>       0.16666667 </v>
   <v>       0.16666667 </v>
   <v>       0.08333333 </v>
   <v>       0.04166667 </v>
   <v>       0.08333333 </v>
   <v>       0.08333333 </v>
   <v>       0.04166667 </v>
  </varray>
 </kpoints>
 <parameters>
  <separator name="general" >
   <i type="string" name="SYSTEM">Generic Input</i>
   <i type="logical" name="LCOMPAT"> F  </i>
  </separator>
  <separator name="electronic" >
   <i type="string" name="PREC">normal</i>
   <i name="ENMAX">    750.00000000</i>
   <i name="ENAUG">    342.92400000</i>
   <i name="EDIFF">      0.00001000</i>
   <i type="int" name="IALGO">    38</i>
   <i type="int" name="IWAVPR">    11</i>
   <i type="int" name="NBANDS">    40</i>
   <i name="NELECT">     60.00000000</i>
   <i type="int" name="TURBO">     0</i>
   <i type="int" name="IRESTART">     0</i>
   <i type="int" name="NREBOOT">     0</i>
   <i type="int" name="NMIN">     0</i>
   <i name="EREF">      0.00000000</i>
   <separator name="electronic smearing" >
    <i type="int" name="ISMEAR">     0</i>
    <i name="SIGMA">      0.01000000</i>
    <i name="KSPACING">      0.50000000</i>
    <i type="logical" name="KGAMMA"> T  </i>
   </separator>
   <separator name="electronic projectors" >
    <i type="logical" name="LREAL"> F  </i>
    <v name="ROPT">      0.00000000</v>
    <i type="int" name="LMAXPAW">  -100</i>
    <i type="int" name="LMAXMIX">     2</i>
    <i type="logical" name="NLSPLINE"> F  </i>
   </separator>
   <separator name="electronic startup" >
    <i type="int" name="ISTART">     0</i>
    <i type="int" name="ICHARG">     2</i>
    <i type="int" name="INIWAV">     1</i>
   </separator>
   <separator name="electronic spin" >
    <i type="int" name="ISPIN">     1</i>
    <i type="logical" name="LNONCOLLINEAR"> F  </i>
    <v name="MAGMOM">      1.00000000      1.00000000      1.00000000      1.00000000      1.00000000      1.00000000      1.00000000      1.00000000      1.00000000      1.00000000      1.00000000      1.00000000</v>
    <i name="NUPDOWN">     -1.00000000</i>
    <i type="logical" name="LSORBIT"> F  </i>
    <v name="SAXIS">      0.00000000      0.00000000      1.00000000</v>
    <i type="logical" name="LSPIRAL"> F  </i>
    <v name="QSPIRAL">      0.00000000      0.00000000      0.00000000</v>
    <i type="logical" name="LZEROZ"> F  </i>
   </separator>
   <separator name="electronic exchange-correlation" >
    <i type="logical" name="LASPH"> T  </i>
    <i type="logical" name="LMETAGGA"> F  </i>
   </separator>
   <separator name="electronic convergence" >
    <i type="int" name="NELM">   200</i>
    <i type="int" name="NELMDL">     0</i>
    <i type="int" name="NELMIN">     2</i>
    <i name="ENINI">    750.00000000</i>
    <separator name="electronic convergence detail" >
     <i type="logical" name="LDIAG"> T  </i>
     <i type="logical" name="LSUBROT"> F  </i>
     <i name="WEIMIN">      0.00000000</i>
     <i name="EBREAK">      0.00000006</i>
     <i name="DEPER">      0.30000000</i>
     <i type="int" name="NRMM">     4</i>
     <i name="TIME">      0.40000000</i>
    </separator>
   </separator>
   <separator name="electronic mixer" >
    <i name="AMIX">      0.40000000</i>
    <i name="BMIX">      1.00000000</i>
    <i name="AMIN">      0.10000000</i>
    <i name="AMIX_MAG">      1.60000000</i>
    <i name="BMIX_MAG">      1.00000000</i>
    <separator name="electronic mixer details" >
     <i type="int" name="IMIX">     4</i>
     <i type="logical" name="MIXFIRST"> F  </i>
     <i type="int" name="MAXMIX">   -45</i>
     <i name="WC">    100.00000000</i>
     <i type="int" name="INIMIX">     1</i>
     <i type="int" name="MIXPRE">     1</i>
     <i type="int" name="MREMOVE">     5</i>
    </separator>
   </separator>
   <separator name="electronic dipolcorrection" >
    <i type="logical" name="LDIPOL"> F  </i>
    <i type="logical" name="LMONO"> F  </i>
    <i type="int" name="IDIPOL">     0</i>
    <i name="EPSILON">      1.00000000</i>
    <v name="DIPOL">   -100.00000000   -100.00000000   -100.00000000</v>
    <i name="EFIELD">      0.00000000</i>
   </separator>
  </separator>
  <separator name="grids" >
   <i type="int" name="NGX">    24</i>
   <i type="int" name="NGY">   224</i>
   <i type="int" name="NGZ">    30</i>
   <i type="int" name="NGXF">    48</i>
   <i type="int" name="NGYF">   448</i>
   <i type="int" name="NGZF">    60</i>
   <i type="logical" name="ADDGRID"> F  </i>
  </separator>
  <separator name="ionic" >
   <i type="int" name="NSW">     0</i>
   <i type="int" name="IBRION">    -1</i>
   <i type="int" name="MDALGO">     0</i>
   <i type="int" name="ISIF">     3</i>
   <i name="PSTRESS">      0.00000000</i>
   <i name="EDIFFG">     -0.02000000</i>
   <i type="int" name="NFREE">     1</i>
   <i name="POTIM">      0.50000000</i>
   <i name="SMASS">     -3.00000000</i>
   <i name="SCALEE">      1.00000000</i>
  </separator>
  <separator name="ionic md" >
   <i name="TEBEG">      0.00010000</i>
   <i name="TEEND">      0.00010000</i>
   <i type="int" name="NBLOCK">     1</i>
   <i type="int" name="KBLOCK">     1</i>
   <i type="int" name="NPACO">   256</i>
   <i name="APACO">     16.00000000</i>
  </separator>
  <separator name="symmetry" >
   <i type="int" name="ISYM">     2</i>
   <i name="SYMPREC">      0.00001000</i>
  </separator>
  <separator name="dos" >
   <i type="int" name="LORBIT">    11</i>
   <v name="RWIGS">     -1.00000000</v>
   <i type="int" name="NEDOS">  2000</i>
   <i name="EMIN">     10.00000000</i>
   <i name="EMAX">    -10.00000000</i>
   <i name="EFERMI">      0.00000000</i>
  </separator>
  <separator name="writing" >
   <i type="int" name="NWRITE">     2</i>
   <i type="logical" name="LWAVE"> T  </i>
   <i type="logical" name="LDOWNSAMPLE"> F  </i>
   <i type="logical" name="LCHARG"> T  </i>
   <i type="logical" name="LPARD"> F  </i>
   <i type="logical" name="LVTOT"> F  </i>
   <i type="logical" name="LVHAR"> T  </i>
   <i type="logical" name="LELF"> F  </i>
   <i type="logical" name="LOPTICS"> F  </i>
   <v name="STM">      0.00000000      0.00000000      0.00000000      0.00000000      0.00000000      0.00000000      0.00000000</v>
  </separator>
  <separator name="performance" >
   <i type="int" name="NPAR">     4</i>
   <i type="int" name="NSIM">     4</i>
   <i type="int" name="NBLK">    -1</i>
   <i type="logical" name="LPLANE"> T  </i>
   <i type="logical" name="LSCALAPACK"> T  </i>
   <i type="logical" name="LSCAAWARE"> F  </i>
   <i type="logical" name="LSCALU"> F  </i>
   <i type="logical" name="LASYNC"> F  </i>
   <i type="logical" name="LORBITALREAL"> F  </i>
  </separator>
  <separator name="miscellaneous" >
   <i type="int" name="IDIOT">     3</i>
   <i type="int" name="ISPECIAL">     0</i>
   <i type="logical" name="LMUSIC"> F  </i>
   <v name="POMASS">     30.97400000</v>
   <v name="DARWINR">      0.00000000</v>
   <v name="DARWINV">      1.00000000</v>
   <i type="logical" name="LCORR"> T  </i>
  </separator>
  <i type="logical" name="GGA_COMPAT"> T  </i>
  <i type="logical" name="LBERRY"> F  </i>
  <i type="int" name="ICORELEVEL">     1</i>
  <i type="int" name="CLNT">     1</i>
  <i type="int" name="CLN">     1</i>
  <i type="int" name="CLL">     0</i>
  <i name="CLZ">      0.00000000</i>
  <i type="logical" name="LDAU"> F  </i>
  <i type="int" name="I_CONSTRAINED_M">     0</i>
  <separator name="electronic exchange-correlation" >
   <i type="string" name="GGA">PE</i>
   <i type="int" name="VOSKOWN">     0</i>
   <i type="logical" name="LHFCALC"> F  </i>
   <i type="string" name="PRECFOCK"></i>
   <i type="logical" name="LSYMGRAD"> F  </i>
   <i type="logical" name="LHFONE"> F  </i>
   <i type="logical" name="LRHFCALC"> F  </i>
   <i type="logical" name="LTHOMAS"> F  </i>
   <i type="logical" name="LMODELHF"> F  </i>
   <i name="ENCUT4O">     -1.00000000</i>
   <i type="int" name="EXXOEP">     0</i>
   <i type="int" name="FOURORBIT">     0</i>
   <i name="AEXX">      0.00000000</i>
   <i name="HFALPHA">      0.00000000</i>
   <i name="MCALPHA">      0.00000000</i>
   <i name="ALDAX">      1.00000000</i>
   <i name="AGGAX">      1.00000000</i>
   <i name="ALDAC">      1.00000000</i>
   <i name="AGGAC">      1.00000000</i>
   <i type="int" name="NKREDX">     1</i>
   <i type="int" name="NKREDY">     1</i>
   <i type="int" name="NKREDZ">     1</i>
   <i type="logical" name="SHIFTRED"> F  </i>
   <i type="logical" name="ODDONLY"> F  </i>
   <i type="logical" name="EVENONLY"> F  </i>
   <i type="int" name="LMAXFOCK">     0</i>
   <i type="int" name="NMAXFOCKAE">     0</i>
   <i type="logical" name="LFOCKAEDFT"> F  </i>
   <i name="HFSCREEN">      0.00000000</i>
   <i name="HFSCREENC">      0.00000000</i>
   <i type="int" name="NBANDSGWLOW">     0</i>
  </separator>
  <separator name="vdW DFT" >
   <i type="logical" name="LUSE_VDW"> F  </i>
   <i name="Zab_VDW">     -0.84910000</i>
   <i name="PARAM1">      0.12340000</i>
   <i name="PARAM2">      1.00000000</i>
   <i name="PARAM3">      0.00000000</i>
  </separator>
  <separator name="model GW" >
   <i type="int" name="MODEL_GW">     0</i>
   <i name="MODEL_EPS0">     23.83979645</i>
   <i name="MODEL_ALPHA">      1.00000000</i>
  </separator>
  <separator name="linear response parameters" >
   <i type="logical" name="LEPSILON"> F  </i>
   <i type="logical" name="LRPA"> F  </i>
   <i type="logical" name="LNABLA"> F  </i>
   <i type="logical" name="LVEL"> F  </i>
   <i type="int" name="KINTER">     0</i>
   <i name="CSHIFT">      0.10000000</i>
   <i name="OMEGAMAX">     -1.00000000</i>
   <i name="DEG_THRESHOLD">      0.00200000</i>
   <i name="RTIME">     -0.10000000</i>
   <i name="WPLASMAI">      0.00000000</i>
   <v name="DFIELD">      0.00000000      0.00000000      0.00000000</v>
   <v name="WPLASMA">      0.00000000      0.00000000      0.00000000      0.00000000      0.00000000      0.00000000      0.00000000      0.00000000      0.00000000</v>
  </separator>
  <separator name="orbital magnetization" >
   <i type="logical" name="NUCIND"> F  </i>
   <v name="MAGPOS">      0.00000000      0.00000000      0.00000000</v>
   <i type="logical" name="LNICSALL"> T  </i>
   <i type="logical" name="ORBITALMAG"> F  </i>
   <i type="logical" name="LMAGBLOCH"> F  </i>
   <i type="logical" name="LCHIMAG"> F  </i>
   <i type="logical" name="LGAUGE"> T  </i>
   <i type="int" name="MAGATOM">     0</i>
   <v name="MAGDIPOL">      0.00000000      0.00000000      0.00000000</v>
   <v name="AVECCONST">      0.00000000      0.00000000      0.00000000</v>
  </separator>
  <separator name="response functions" >
   <i type="logical" name="LADDER"> F  </i>
   <i type="logical" name="LRPAFORCE"> F  </i>
   <i type="logical" name="LFXC"> F  </i>
   <i type="logical" name="LHARTREE"> T  </i>
   <i type="int" name="IBSE">     0</i>
   <v type="int" name="KPOINT">    -1     0     0     0</v>
   <i type="logical" name="LTCTE"> F  </i>
   <i type="logical" name="LTETE"> F  </i>
   <i type="logical" name="LTRIPLET"> F  </i>
   <i type="logical" name="LFXCEPS"> F  </i>
   <i type="logical" name="LFXHEG"> F  </i>
   <i type="int" name="NATURALO">     2</i>
   <i type="logical" name="L2ORDER"> F  </i>
   <i type="logical" name="LMP2LT"> F  </i>
   <i type="logical" name="LUSEW"> F  </i>
   <i name="ENCUTGW">     -2.00000000</i>
   <i name="ENCUTGWSOFT">     -2.00000000</i>
   <i name="ENCUTLF">     -1.00000000</i>
   <i type="int" name="LMAXMP2">    -1</i>
   <i name="SCISSOR">      0.00000000</i>
   <i type="int" name="NOMEGA">     0</i>
   <i type="int" name="NOMEGAR">     0</i>
   <i type="int" name="NBANDSGW">    -1</i>
   <i type="int" name="NBANDSO">    -1</i>
   <i type="int" name="NBANDSV">    -1</i>
   <i type="int" name="NELM">   200</i>
   <i type="int" name="NELMHF">     1</i>
   <i type="int" name="DIM">     3</i>
   <i type="int" name="ANTIRES">     0</i>
   <i name="OMEGAMAX">    -30.00000000</i>
   <i name="OMEGAMIN">    -30.00000000</i>
   <i name="OMEGATL">   -200.00000000</i>
   <i type="int" name="OMEGAGRID">   140</i>
   <i name="CSHIFT">     -0.10000000</i>
   <i type="logical" name="SELFENERGY"> F  </i>
   <i type="logical" name="LSPECTRAL"> F  </i>
   <i type="logical" name="LSPECTRALGW"> F  </i>
   <i type="logical" name="LSINGLES"> F  </i>
   <i type="logical" name="LFERMIGW"> F  </i>
   <i type="logical" name="ODDONLYGW"> F  </i>
   <i type="logical" name="EVENONLYGW"> F  </i>
   <i type="int" name="NKREDLFX">     1</i>
   <i type="int" name="NKREDLFY">     1</i>
   <i type="int" name="NKREDLFZ">     1</i>
   <i type="int" name="MAXMEM">  2800</i>
   <i type="int" name="TELESCOPE">     0</i>
   <i type="int" name="TAUPAR">     1</i>
   <i type="int" name="OMEGAPAR">    -1</i>
   <i name="LAMBDA">      1.00000000</i>
  </separator>
  <separator name="External order field" >
   <i name="OFIELD_KAPPA">      0.00000000</i>
   <v name="OFIELD_K">      0.00000000      0.00000000      0.00000000</v>
   <i name="OFIELD_Q6_NEAR">      0.00000000</i>
   <i name="OFIELD_Q6_FAR">      0.00000000</i>
   <i name="OFIELD_A">      0.00000000</i>
  </separator>
 </parameters>
 <atominfo>
  <atoms>      12 </atoms>
  <types>       1 </types>
  <array name="atoms" >
   <dimension dim="1">ion</dimension>
   <field type="string">element</field>
   <field type="int">atomtype</field>
   <set>
    <rc><c>P </c><c>   1</c></rc>
    <rc><c>P </c><c>   1</c></rc>
    <rc><c>P </c><c>   1</c></rc>
    <rc><c>P </c><c>   1</c></rc>
    <rc><c>P </c><c>   1</c></rc>
    <rc><c>P </c><c>   1</c></rc>
    <rc><c>P </c><c>   1</c></rc>
    <rc><c>P </c><c>   1</c></rc>
    <rc><c>P </c><c>   1</c></rc>
    <rc><c>P </c><c>   1</c></rc>
    <rc><c>P </c><c>   1</c></rc>
    <rc><c>P </c><c>   1</c></rc>
   </set>
  </array>
  <array name="atomtypes" >
   <dimension dim="1">type</dimension>
   <field type="int">atomspertype</field>
   <field type="string">element</field>
   <field>mass</field>
   <field>valence</field>
   <field type="string">pseudopotential</field>
   <set>
    <rc><c>  12</c><c>P </c><c>     30.97400000</c><c>      5.00000000</c><c>  PAW_PBE P 06Sep2000                   </c></rc>
   </set>
  </array>
 </atominfo>
 <structure name="initialpos" >
  <crystal>
   <varray name="basis" >
    <v>       3.34288600       0.00000000       0.00000000 </v>
    <v>       0.00000000      32.60240900       0.00000000 </v>
    <v>       0.00000000       0.00000000       4.37483100 </v>
   </varray>
   <i name="volume">    476.79592902 </i>
   <varray name="rec_basis" >
    <v>       0.29914272       0.00000000       0.00000000 </v>
    <v>       0.00000000       0.03067258       0.00000000 </v>
    <v>       0.00000000       0.00000000       0.22858026 </v>
   </varray>
  </crystal>
  <varray name="positions" >
   <v>       0.00000000       0.30672600       0.91892400 </v>
   <v>       0.50000000       0.30672600       0.58107600 </v>
   <v>       0.00000000       0.37246700       0.08107600 </v>
   <v>       0.50000000       0.37246700       0.41892400 </v>
   <v>       0.50000000       0.46712900       0.91892400 </v>
   <v>       0.00000000       0.46712900       0.58107600 </v>
   <v>       0.50000000       0.53287100       0.08107600 </v>
   <v>       0.00000000       0.53287100       0.41892400 </v>
   <v>       0.00000000       0.62753300       0.91892400 </v>
   <v>       0.50000000       0.62753300       0.58107600 </v>
   <v>       0.00000000       0.69327400       0.08107600 </v>
   <v>       0.50000000       0.69327400       0.41892400 </v>
  </varray>
 </structure>
 <calculation>
  <scstep>
   <time name="dav">    1.01    1.01</time>
   <time name="total">    1.13    1.14</time>
   <energy>
    <i name="alphaZ">     30.28014394 </i>
    <i name="ewald">  14973.24208224 </i>
    <i name="hartreedc"> -16928.93300519 </i>
    <i name="XCdc">     40.33410162 </i>
    <i name="pawpsdc">   1677.12035881 </i>
    <i name="pawaedc">  -1579.18296132 </i>
    <i name="eentropy">     -0.00078131 </i>
    <i name="bandstr">    108.87680516 </i>
    <i name="atom">   2112.51083163 </i>
    <i name="e_fr_energy">    434.24757558 </i>
    <i name="e_wo_entrp">    434.24835689 </i>
    <i name="e_0_energy">    434.24796623 </i>
   </energy>
  </scstep>
  <scstep>
   <time name="dav">    1.30    1.31</time>
   <time name="total">    1.30    1.31</time>
   <energy>
    <i name="e_fr_energy">    -13.19526050 </i>
    <i name="e_wo_entrp">    -13.19526050 </i>
    <i name="e_0_energy">    -13.19526050 </i>
   </energy>
  </scstep>
  <scstep>
   <time name="dav">    1.13    1.13</time>
   <time name="total">    1.13    1.13</time>
   <energy>
    <i name="e_fr_energy">    -62.88545653 </i>
    <i name="e_wo_entrp">    -62.88545653 </i>
    <i name="e_0_energy">    -62.88545653 </i>
   </energy>
  </scstep>
  <scstep>
   <time name="dav">    1.34    1.34</time>
   <time name="total">    1.34    1.34</time>
   <energy>
    <i name="e_fr_energy">    -64.76453092 </i>
    <i name="e_wo_entrp">    -64.76453092 </i>
    <i name="e_0_energy">    -64.76453092 </i>
   </energy>
  </scstep>
  <scstep>
   <time name="dav">    1.33    1.34</time>
   <time name="total">    1.40    1.40</time>
   <energy>
    <i name="e_fr_energy">    -64.81542420 </i>
    <i name="e_wo_entrp">    -64.81542420 </i>
    <i name="e_0_energy">    -64.81542420 </i>
   </energy>
  </scstep>
  <scstep>
   <time name="dav">    1.24    1.24</time>
   <time name="total">    1.41    1.41</time>
   <energy>
    <i name="e_fr_energy">    -64.49087467 </i>
    <i name="e_wo_entrp">    -64.49087467 </i>
    <i name="e_0_energy">    -64.49087467 </i>
   </energy>
  </scstep>
  <scstep>
   <time name="dav">    1.15    1.15</time>
   <time name="total">    1.31    1.32</time>
   <energy>
    <i name="e_fr_energy">    -64.34148833 </i>
    <i name="e_wo_entrp">    -64.34148811 </i>
    <i name="e_0_energy">    -64.34148822 </i>
   </energy>
  </scstep>
  <scstep>
   <time name="dav">    1.25    1.25</time>
   <time name="total">    1.42    1.42</time>
   <energy>
    <i name="e_fr_energy">    -64.34130610 </i>
    <i name="e_wo_entrp">    -64.34130603 </i>
    <i name="e_0_energy">    -64.34130607 </i>
   </energy>
  </scstep>
  <scstep>
   <time name="dav">    1.33    1.33</time>
   <time name="total">    1.49    1.49</time>
   <energy>
    <i name="e_fr_energy">    -64.34126402 </i>
    <i name="e_wo_entrp">    -64.34126395 </i>
    <i name="e_0_energy">    -64.34126398 </i>
   </energy>
  </scstep>
  <scstep>
   <time name="dav">    1.18    1.18</time>
   <time name="total">    1.36    1.36</time>
   <energy>
    <i name="e_fr_energy">    -64.34101212 </i>
    <i name="e_wo_entrp">    -64.34101208 </i>
    <i name="e_0_energy">    -64.34101210 </i>
   </energy>
  </scstep>
  <scstep>
   <time name="dav">    1.19    1.19</time>
   <time name="total">    1.36    1.36</time>
   <energy>
    <i name="e_fr_energy">    -64.34072967 </i>
    <i name="e_wo_entrp">    -64.34072962 </i>
    <i name="e_0_energy">    -64.34072965 </i>
   </energy>
  </scstep>
  <scstep>
   <time name="dav">    1.26    1.28</time>
   <time name="total">    1.43    1.45</time>
   <energy>
    <i name="e_fr_energy">    -64.34085477 </i>
    <i name="e_wo_entrp">    -64.34085472 </i>
    <i name="e_0_energy">    -64.34085474 </i>
   </energy>
  </scstep>
  <scstep>
   <time name="dav">    1.17    1.17</time>
   <time name="total">    1.34    1.34</time>
   <energy>
    <i name="e_fr_energy">    -64.34107430 </i>
    <i name="e_wo_entrp">    -64.34107424 </i>
    <i name="e_0_energy">    -64.34107427 </i>
   </energy>
  </scstep>
  <scstep>
   <time name="dav">    0.92    0.92</time>
   <time name="total">    1.09    1.09</time>
   <energy>
    <i name="e_fr_energy">    -64.34114983 </i>
    <i name="e_wo_entrp">    -64.34114977 </i>
    <i name="e_0_energy">    -64.34114980 </i>
   </energy>
  </scstep>
  <scstep>
   <time name="dav">    0.93    0.93</time>
   <time name="total">    1.10    1.10</time>
   <energy>
    <i name="e_fr_energy">    -64.34132109 </i>
    <i name="e_wo_entrp">    -64.34132102 </i>
    <i name="e_0_energy">    -64.34132105 </i>
   </energy>
  </scstep>
  <scstep>
   <time name="dav">    1.01    1.01</time>
   <time name="total">    1.18    1.18</time>
   <energy>
    <i name="e_fr_energy">    -64.34147374 </i>
    <i name="e_wo_entrp">    -64.34147367 </i>
    <i name="e_0_energy">    -64.34147370 </i>
   </energy>
  </scstep>
  <scstep>
   <time name="dav">    0.88    0.88</time>
   <time name="total">    1.07    1.07</time>
   <energy>
    <i name="alphaZ">     30.28014394 </i>
    <i name="ewald">  14973.24208224 </i>
    <i name="hartreedc"> -16968.11150882 </i>
    <i name="XCdc">     43.14250555 </i>
    <i name="pawpsdc">   6271.22229399 </i>
    <i name="pawaedc">  -6174.20283779 </i>
    <i name="eentropy">     -0.00000007 </i>
    <i name="bandstr">   -352.42498589 </i>
    <i name="atom">   2112.51083163 </i>
    <i name="e_fr_energy">    -64.34147522 </i>
    <i name="e_wo_entrp">    -64.34147516 </i>
    <i name="e_0_energy">    -64.34147519 </i>
   </energy>
  </scstep>
  <structure>
   <crystal>
    <varray name="basis" >
     <v>       3.34288600       0.00000000       0.00000000 </v>
     <v>       0.00000000      32.60240900       0.00000000 </v>
     <v>       0.00000000       0.00000000       4.37483100 </v>
    </varray>
    <i name="volume">    476.79592902 </i>
    <varray name="rec_basis" >
     <v>       0.29914272       0.00000000       0.00000000 </v>
     <v>       0.00000000       0.03067258       0.00000000 </v>
     <v>       0.00000000       0.00000000       0.22858026 </v>
    </varray>
   </crystal>
   <varray name="positions" >
    <v>       0.00000000       0.30672600       0.91892400 </v>
    <v>       0.50000000       0.30672600       0.58107600 </v>
    <v>       0.00000000       0.37246700       0.08107600 </v>
    <v>       0.50000000       0.37246700       0.41892400 </v>
    <v>       0.50000000       0.46712900       0.91892400 </v>
    <v>       0.00000000       0.46712900       0.58107600 </v>
    <v>       0.50000000       0.53287100       0.08107600 </v>
    <v>       0.00000000       0.53287100       0.41892400 </v>
    <v>       0.00000000       0.62753300       0.91892400 </v>
    <v>       0.50000000       0.62753300       0.58107600 </v>
    <v>       0.00000000       0.69327400       0.08107600 </v>
    <v>       0.50000000       0.69327400       0.41892400 </v>
   </varray>
  </structure>
  <varray name="forces" >
   <v>       0.00000000       0.08189861      -0.03881076 </v>
   <v>       0.00000000       0.08189861       0.03881076 </v>
   <v>       0.00000000      -0.07800237      -0.02112894 </v>
   <v>       0.00000000      -0.07800237       0.02112894 </v>
   <v>       0.00000000       0.03819960       0.00230261 </v>
   <v>       0.00000000       0.03819960      -0.00230261 </v>
   <v>       0.00000000      -0.03819960      -0.00230261 </v>
   <v>       0.00000000      -0.03819960       0.00230261 </v>
   <v>       0.00000000       0.07800237       0.02112894 </v>
   <v>       0.00000000       0.07800237      -0.02112894 </v>
   <v>       0.00000000      -0.08189861       0.03881076 </v>
   <v>       0.00000000      -0.08189861      -0.03881076 </v>
  </varray>
  <varray name="stress" >
   <v>       0.99946006       0.00000000       0.00000000 </v>
   <v>       0.00000000      -3.16335913       0.00000000 </v>
   <v>       0.00000000       0.00000000       4.18612447 </v>
  </varray>
  <energy>
   <i name="e_fr_energy">    -66.51541475 </i>
   <i name="e_wo_entrp">    -66.51541471 </i>
   <i name="e_0_energy">     -0.00000007 </i>
  </energy>
  <time name="totalsc">   25.40   25.51</time>
  <eigenvalues>
   <array>
    <dimension dim="1">band</dimension>
    <dimension dim="2">kpoint</dimension>
    <dimension dim="3">spin</dimension>
    <field>eigene</field>
    <field>occ</field>
    <set>
     <set comment="spin 1">
      <set comment="kpoint 1">
       <r>  -14.8556    1.0000 </r>
       <r>  -14.7356    1.0000 </r>
       <r>  -14.6668    1.0000 </r>
       <r>  -12.3747    1.0000 </r>
       <r>  -12.1291    1.0000 </r>
       <r>  -11.9491    1.0000 </r>
       <r>   -8.6075    1.0000 </r>
       <r>   -8.5237    1.0000 </r>
       <r>   -8.4933    1.0000 </r>
       <r>   -5.9256    1.0000 </r>
       <r>   -5.5469    1.0000 </r>
       <r>   -5.1286    1.0000 </r>
       <r>   -4.5065    1.0000 </r>
       <r>   -4.5064    1.0000 </r>
       <r>   -4.1891    1.0000 </r>
       <r>   -4.1446    1.0000 </r>
       <r>   -3.9972    1.0000 </r>
       <r>   -3.9231    1.0000 </r>
       <r>   -3.3951    1.0000 </r>
       <r>   -3.2946    1.0000 </r>
       <r>   -3.2446    1.0000 </r>
       <r>   -1.8813    1.0000 </r>
       <r>   -1.7379    1.0000 </r>
       <r>   -1.6263    1.0000 </r>
       <r>   -1.5912    1.0000 </r>
       <r>   -1.5059    1.0000 </r>
       <r>   -1.1095    1.0000 </r>
       <r>   -0.2512    1.0000 </r>
       <r>    0.3525    1.0000 </r>
       <r>    0.9080    1.0000 </r>
       <r>    0.9676    0.0000 </r>
       <r>    1.4952    0.0000 </r>
       <r>    1.5212    0.0000 </r>
       <r>    1.6958    0.0000 </r>
       <r>    1.7033    0.0000 </r>
       <r>    1.8592    0.0000 </r>
       <r>    2.7286    0.0000 </r>
       <r>    2.8989    0.0000 </r>
       <r>    2.9700    0.0000 </r>
       <r>    3.7346    0.0000 </r>
      </set>
      <set comment="kpoint 2">
       <r>  -14.5321    1.0000 </r>
       <r>  -14.4133    1.0000 </r>
       <r>  -14.3457    1.0000 </r>
       <r>  -12.0380    1.0000 </r>
       <r>  -11.7938    1.0000 </r>
       <r>  -11.6149    1.0000 </r>
       <r>   -8.9001    1.0000 </r>
       <r>   -8.8394    1.0000 </r>
       <r>   -8.8333    1.0000 </r>
       <r>   -5.6526    1.0000 </r>
       <r>   -5.2816    1.0000 </r>
       <r>   -4.9736    1.0000 </r>
       <r>   -4.8929    1.0000 </r>
       <r>   -4.8863    1.0000 </r>
       <r>   -4.8549    1.0000 </r>
       <r>   -4.4298    1.0000 </r>
       <r>   -4.3566    1.0000 </r>
       <r>   -4.3459    1.0000 </r>
       <r>   -4.2204    1.0000 </r>
       <r>   -3.8759    1.0000 </r>
       <r>   -3.7317    1.0000 </r>
       <r>   -2.6630    1.0000 </r>
       <r>   -2.5128    1.0000 </r>
       <r>   -2.3475    1.0000 </r>
       <r>   -1.7433    1.0000 </r>
       <r>   -1.4721    1.0000 </r>
       <r>   -0.9695    1.0000 </r>
       <r>   -0.2152    1.0000 </r>
       <r>    0.1850    1.0000 </r>
       <r>    0.4554    1.0000 </r>
       <r>    1.2509    0.0000 </r>
       <r>    1.6555    0.0000 </r>
       <r>    1.8799    0.0000 </r>
       <r>    2.3374    0.0000 </r>
       <r>    2.5493    0.0000 </r>
       <r>    2.5738    0.0000 </r>
       <r>    3.7483    0.0000 </r>
       <r>    3.8737    0.0000 </r>
       <r>    3.9784    0.0000 </r>
       <r>    4.2663    0.0000 </r>
      </set>
      <set comment="kpoint 3">
       <r>  -13.5790    1.0000 </r>
       <r>  -13.4643    1.0000 </r>
       <r>  -13.4011    1.0000 </r>
       <r>  -11.0364    1.0000 </r>
       <r>  -10.7969    1.0000 </r>
       <r>  -10.6217    1.0000 </r>
       <r>  -10.2427    1.0000 </r>
       <r>  -10.1637    1.0000 </r>
       <r>  -10.1386    1.0000 </r>
       <r>   -7.2224    1.0000 </r>
       <r>   -7.0265    1.0000 </r>
       <r>   -6.8882    1.0000 </r>
       <r>   -4.9319    1.0000 </r>
       <r>   -4.9069    1.0000 </r>
       <r>   -4.8509    1.0000 </r>
       <r>   -4.8418    1.0000 </r>
       <r>   -4.6067    1.0000 </r>
       <r>   -4.3172    1.0000 </r>
       <r>   -3.4275    1.0000 </r>
       <r>   -3.1583    1.0000 </r>
       <r>   -3.0352    1.0000 </r>
       <r>   -2.6870    1.0000 </r>
       <r>   -2.3977    1.0000 </r>
       <r>   -2.1632    1.0000 </r>
       <r>   -1.7922    1.0000 </r>
       <r>   -1.5232    1.0000 </r>
       <r>   -1.1915    1.0000 </r>
       <r>   -0.8946    1.0000 </r>
       <r>   -0.7550    1.0000 </r>
       <r>   -0.6915    1.0000 </r>
       <r>    1.1097    0.0000 </r>
       <r>    1.1709    0.0000 </r>
       <r>    1.4326    0.0000 </r>
       <r>    2.0718    0.0000 </r>
       <r>    2.2836    0.0000 </r>
       <r>    2.6010    0.0000 </r>
       <r>    2.6443    0.0000 </r>
       <r>    2.6603    0.0000 </r>
       <r>    2.6676    0.0000 </r>
       <r>    2.9510    0.0000 </r>
      </set>
      <set comment="kpoint 4">
       <r>  -12.0685    1.0000 </r>
       <r>  -12.0685    1.0000 </r>
       <r>  -11.9638    1.0000 </r>
       <r>  -11.9638    1.0000 </r>
       <r>  -11.9113    1.0000 </r>
       <r>  -11.9113    1.0000 </r>
       <r>   -9.4010    1.0000 </r>
       <r>   -9.4010    1.0000 </r>
       <r>   -9.1726    1.0000 </r>
       <r>   -9.1726    1.0000 </r>
       <r>   -9.0063    1.0000 </r>
       <r>   -9.0063    1.0000 </r>
       <r>   -4.4708    1.0000 </r>
       <r>   -4.4708    1.0000 </r>
       <r>   -4.3367    1.0000 </r>
       <r>   -4.3367    1.0000 </r>
       <r>   -4.2910    1.0000 </r>
       <r>   -4.2910    1.0000 </r>
       <r>   -2.4686    1.0000 </r>
       <r>   -2.4686    1.0000 </r>
       <r>   -2.3952    1.0000 </r>
       <r>   -2.3952    1.0000 </r>
       <r>   -2.3949    1.0000 </r>
       <r>   -2.3949    1.0000 </r>
       <r>   -2.0120    1.0000 </r>
       <r>   -2.0120    1.0000 </r>
       <r>   -1.7415    1.0000 </r>
       <r>   -1.7415    1.0000 </r>
       <r>   -1.4893    1.0000 </r>
       <r>   -1.4893    1.0000 </r>
       <r>    1.6177    0.0000 </r>
       <r>    1.6177    0.0000 </r>
       <r>    1.6302    0.0000 </r>
       <r>    1.6302    0.0000 </r>
       <r>    1.7120    0.0000 </r>
       <r>    1.7120    0.0000 </r>
       <r>    2.1536    0.0000 </r>
       <r>    2.1543    0.0000 </r>
       <r>    2.1901    0.0000 </r>
       <r>    2.1908    0.0000 </r>
      </set>
      <set comment="kpoint 5">
       <r>  -14.5042    1.0000 </r>
       <r>  -14.3914    1.0000 </r>
       <r>  -14.3303    1.0000 </r>
       <r>  -12.5970    1.0000 </r>
       <r>  -12.4635    1.0000 </r>
       <r>  -12.4027    1.0000 </r>
       <r>   -9.0069    1.0000 </r>
       <r>   -8.8503    1.0000 </r>
       <r>   -8.7277    1.0000 </r>
       <r>   -6.9132    1.0000 </r>
       <r>   -6.6405    1.0000 </r>
       <r>   -6.4725    1.0000 </r>
       <r>   -4.5501    1.0000 </r>
       <r>   -4.0392    1.0000 </r>
       <r>   -3.3773    1.0000 </r>
       <r>   -3.1179    1.0000 </r>
       <r>   -3.0649    1.0000 </r>
       <r>   -3.0258    1.0000 </r>
       <r>   -2.9848    1.0000 </r>
       <r>   -2.7198    1.0000 </r>
       <r>   -2.7191    1.0000 </r>
       <r>   -1.8663    1.0000 </r>
       <r>   -1.7660    1.0000 </r>
       <r>   -1.7349    1.0000 </r>
       <r>   -1.7273    1.0000 </r>
       <r>   -1.0764    1.0000 </r>
       <r>   -0.4274    1.0000 </r>
       <r>   -0.2686    1.0000 </r>
       <r>   -0.2062    1.0000 </r>
       <r>   -0.0287    1.0000 </r>
       <r>    1.6780    0.0000 </r>
       <r>    2.0044    0.0000 </r>
       <r>    2.1126    0.0000 </r>
       <r>    2.2060    0.0000 </r>
       <r>    2.2557    0.0000 </r>
       <r>    2.2588    0.0000 </r>
       <r>    2.3666    0.0000 </r>
       <r>    2.7070    0.0000 </r>
       <r>    3.2512    0.0000 </r>
       <r>    3.3099    0.0000 </r>
      </set>
      <set comment="kpoint 6">
       <r>  -14.1854    1.0000 </r>
       <r>  -14.0738    1.0000 </r>
       <r>  -14.0140    1.0000 </r>
       <r>  -12.2811    1.0000 </r>
       <r>  -12.1519    1.0000 </r>
       <r>  -12.0953    1.0000 </r>
       <r>   -9.0406    1.0000 </r>
       <r>   -8.8885    1.0000 </r>
       <r>   -8.7752    1.0000 </r>
       <r>   -6.7973    1.0000 </r>
       <r>   -6.5678    1.0000 </r>
       <r>   -6.4210    1.0000 </r>
       <r>   -4.9871    1.0000 </r>
       <r>   -4.8466    1.0000 </r>
       <r>   -4.7177    1.0000 </r>
       <r>   -4.5129    1.0000 </r>
       <r>   -4.0391    1.0000 </r>
       <r>   -3.7248    1.0000 </r>
       <r>   -3.3143    1.0000 </r>
       <r>   -3.1991    1.0000 </r>
       <r>   -2.9155    1.0000 </r>
       <r>   -2.3371    1.0000 </r>
       <r>   -2.1663    1.0000 </r>
       <r>   -2.1450    1.0000 </r>
       <r>   -1.5004    1.0000 </r>
       <r>   -0.9530    1.0000 </r>
       <r>   -0.8623    1.0000 </r>
       <r>   -0.7323    1.0000 </r>
       <r>   -0.4619    1.0000 </r>
       <r>   -0.4136    1.0000 </r>
       <r>    2.0263    0.0000 </r>
       <r>    2.3112    0.0000 </r>
       <r>    2.5865    0.0000 </r>
       <r>    2.8617    0.0000 </r>
       <r>    3.0122    0.0000 </r>
       <r>    3.0642    0.0000 </r>
       <r>    3.3719    0.0000 </r>
       <r>    3.4966    0.0000 </r>
       <r>    3.6066    0.0000 </r>
       <r>    4.3232    0.0000 </r>
      </set>
      <set comment="kpoint 7">
       <r>  -13.2543    1.0000 </r>
       <r>  -13.1474    1.0000 </r>
       <r>  -13.0924    1.0000 </r>
       <r>  -11.4377    1.0000 </r>
       <r>  -11.3356    1.0000 </r>
       <r>  -11.3025    1.0000 </r>
       <r>   -9.7511    1.0000 </r>
       <r>   -9.5913    1.0000 </r>
       <r>   -9.4815    1.0000 </r>
       <r>   -7.5250    1.0000 </r>
       <r>   -7.4382    1.0000 </r>
       <r>   -7.4176    1.0000 </r>
       <r>   -5.8340    1.0000 </r>
       <r>   -5.6664    1.0000 </r>
       <r>   -5.5331    1.0000 </r>
       <r>   -4.7984    1.0000 </r>
       <r>   -4.7544    1.0000 </r>
       <r>   -4.6793    1.0000 </r>
       <r>   -3.3928    1.0000 </r>
       <r>   -3.3123    1.0000 </r>
       <r>   -3.1788    1.0000 </r>
       <r>   -2.5137    1.0000 </r>
       <r>   -2.3697    1.0000 </r>
       <r>   -2.3650    1.0000 </r>
       <r>   -2.2372    1.0000 </r>
       <r>   -1.8492    1.0000 </r>
       <r>   -1.3316    1.0000 </r>
       <r>   -0.9612    1.0000 </r>
       <r>   -0.6613    1.0000 </r>
       <r>   -0.6253    1.0000 </r>
       <r>    1.7023    0.0000 </r>
       <r>    1.8304    0.0000 </r>
       <r>    2.0252    0.0000 </r>
       <r>    2.5134    0.0000 </r>
       <r>    2.7038    0.0000 </r>
       <r>    2.9599    0.0000 </r>
       <r>    3.1510    0.0000 </r>
       <r>    3.3289    0.0000 </r>
       <r>    3.3707    0.0000 </r>
       <r>    3.8730    0.0000 </r>
      </set>
      <set comment="kpoint 8">
       <r>  -11.8554    1.0000 </r>
       <r>  -11.8554    1.0000 </r>
       <r>  -11.7638    1.0000 </r>
       <r>  -11.7638    1.0000 </r>
       <r>  -11.7254    1.0000 </r>
       <r>  -11.7254    1.0000 </r>
       <r>   -9.4319    1.0000 </r>
       <r>   -9.4319    1.0000 </r>
       <r>   -9.2743    1.0000 </r>
       <r>   -9.2743    1.0000 </r>
       <r>   -9.1829    1.0000 </r>
       <r>   -9.1829    1.0000 </r>
       <r>   -5.0187    1.0000 </r>
       <r>   -5.0187    1.0000 </r>
       <r>   -4.8292    1.0000 </r>
       <r>   -4.8292    1.0000 </r>
       <r>   -4.6775    1.0000 </r>
       <r>   -4.6775    1.0000 </r>
       <r>   -3.6877    1.0000 </r>
       <r>   -3.6877    1.0000 </r>
       <r>   -3.4435    1.0000 </r>
       <r>   -3.4435    1.0000 </r>
       <r>   -3.3103    1.0000 </r>
       <r>   -3.3103    1.0000 </r>
       <r>   -1.5506    1.0000 </r>
       <r>   -1.5506    1.0000 </r>
       <r>   -1.2072    1.0000 </r>
       <r>   -1.2072    1.0000 </r>
       <r>   -0.9113    1.0000 </r>
       <r>   -0.9113    1.0000 </r>
       <r>    2.0040    0.0000 </r>
       <r>    2.0040    0.0000 </r>
       <r>    2.3068    0.0000 </r>
       <r>    2.3068    0.0000 </r>
       <r>    2.4536    0.0000 </r>
       <r>    2.4536    0.0000 </r>
       <r>    3.1785    0.0000 </r>
       <r>    3.1785    0.0000 </r>
       <r>    3.4024    0.0000 </r>
       <r>    3.4024    0.0000 </r>
      </set>
      <set comment="kpoint 9">
       <r>  -13.5478    1.0000 </r>
       <r>  -13.5478    1.0000 </r>
       <r>  -13.4783    1.0000 </r>
       <r>  -13.4783    1.0000 </r>
       <r>  -13.4319    1.0000 </r>
       <r>  -13.4319    1.0000 </r>
       <r>   -8.5723    1.0000 </r>
       <r>   -8.5723    1.0000 </r>
       <r>   -8.2559    1.0000 </r>
       <r>   -8.2559    1.0000 </r>
       <r>   -7.9822    1.0000 </r>
       <r>   -7.9822    1.0000 </r>
       <r>   -3.5925    1.0000 </r>
       <r>   -3.5925    1.0000 </r>
       <r>   -2.8298    1.0000 </r>
       <r>   -2.8298    1.0000 </r>
       <r>   -2.4238    1.0000 </r>
       <r>   -2.4238    1.0000 </r>
       <r>   -2.3804    1.0000 </r>
       <r>   -2.3804    1.0000 </r>
       <r>   -2.3350    1.0000 </r>
       <r>   -2.3350    1.0000 </r>
       <r>   -2.0246    1.0000 </r>
       <r>   -2.0246    1.0000 </r>
       <r>   -0.7290    1.0000 </r>
       <r>   -0.7290    1.0000 </r>
       <r>   -0.5213    1.0000 </r>
       <r>   -0.5213    1.0000 </r>
       <r>   -0.4487    1.0000 </r>
       <r>   -0.4487    1.0000 </r>
       <r>    2.1889    0.0000 </r>
       <r>    2.1889    0.0000 </r>
       <r>    2.2320    0.0000 </r>
       <r>    2.2320    0.0000 </r>
       <r>    2.2845    0.0000 </r>
       <r>    2.2845    0.0000 </r>
       <r>    3.4166    0.0000 </r>
       <r>    3.4176    0.0000 </r>
       <r>    3.5636    0.0000 </r>
       <r>    3.5811    0.0000 </r>
      </set>
      <set comment="kpoint 10">
       <r>  -13.2417    1.0000 </r>
       <r>  -13.2417    1.0000 </r>
       <r>  -13.1724    1.0000 </r>
       <r>  -13.1724    1.0000 </r>
       <r>  -13.1270    1.0000 </r>
       <r>  -13.1270    1.0000 </r>
       <r>   -8.4275    1.0000 </r>
       <r>   -8.4275    1.0000 </r>
       <r>   -8.1374    1.0000 </r>
       <r>   -8.1374    1.0000 </r>
       <r>   -7.8967    1.0000 </r>
       <r>   -7.8967    1.0000 </r>
       <r>   -4.3711    1.0000 </r>
       <r>   -4.3711    1.0000 </r>
       <r>   -4.2653    1.0000 </r>
       <r>   -4.2653    1.0000 </r>
       <r>   -4.1670    1.0000 </r>
       <r>   -4.1670    1.0000 </r>
       <r>   -3.3524    1.0000 </r>
       <r>   -3.3524    1.0000 </r>
       <r>   -2.6393    1.0000 </r>
       <r>   -2.6393    1.0000 </r>
       <r>   -1.9693    1.0000 </r>
       <r>   -1.9693    1.0000 </r>
       <r>   -0.8133    1.0000 </r>
       <r>   -0.8133    1.0000 </r>
       <r>   -0.6464    1.0000 </r>
       <r>   -0.6464    1.0000 </r>
       <r>   -0.4929    1.0000 </r>
       <r>   -0.4929    1.0000 </r>
       <r>    2.8438    0.0000 </r>
       <r>    2.8438    0.0000 </r>
       <r>    2.9819    0.0000 </r>
       <r>    2.9819    0.0000 </r>
       <r>    3.0951    0.0000 </r>
       <r>    3.0951    0.0000 </r>
       <r>    3.5123    0.0000 </r>
       <r>    3.5123    0.0000 </r>
       <r>    3.9730    0.0000 </r>
       <r>    3.9730    0.0000 </r>
      </set>
      <set comment="kpoint 11">
       <r>  -12.3838    1.0000 </r>
       <r>  -12.3838    1.0000 </r>
       <r>  -12.3166    1.0000 </r>
       <r>  -12.3166    1.0000 </r>
       <r>  -12.2765    1.0000 </r>
       <r>  -12.2765    1.0000 </r>
       <r>   -8.6646    1.0000 </r>
       <r>   -8.6646    1.0000 </r>
       <r>   -8.5152    1.0000 </r>
       <r>   -8.5152    1.0000 </r>
       <r>   -8.4293    1.0000 </r>
       <r>   -8.4293    1.0000 </r>
       <r>   -5.7971    1.0000 </r>
       <r>   -5.7971    1.0000 </r>
       <r>   -5.5460    1.0000 </r>
       <r>   -5.5460    1.0000 </r>
       <r>   -5.3212    1.0000 </r>
       <r>   -5.3212    1.0000 </r>
       <r>   -3.4365    1.0000 </r>
       <r>   -3.4365    1.0000 </r>
       <r>   -3.0702    1.0000 </r>
       <r>   -3.0702    1.0000 </r>
       <r>   -2.7870    1.0000 </r>
       <r>   -2.7870    1.0000 </r>
       <r>   -1.8744    1.0000 </r>
       <r>   -1.8744    1.0000 </r>
       <r>   -1.3289    1.0000 </r>
       <r>   -1.3289    1.0000 </r>
       <r>   -0.8299    1.0000 </r>
       <r>   -0.8299    1.0000 </r>
       <r>    2.6908    0.0000 </r>
       <r>    2.6908    0.0000 </r>
       <r>    3.2772    0.0000 </r>
       <r>    3.2772    0.0000 </r>
       <r>    3.9550    0.0000 </r>
       <r>    3.9553    0.0000 </r>
       <r>    3.9818    0.0000 </r>
       <r>    3.9830    0.0000 </r>
       <r>    4.0858    0.0000 </r>
       <r>    4.0872    0.0000 </r>
      </set>
      <set comment="kpoint 12">
       <r>  -11.5672    1.0000 </r>
       <r>  -11.5672    1.0000 </r>
       <r>  -11.5118    1.0000 </r>
       <r>  -11.5118    1.0000 </r>
       <r>  -11.5116    1.0000 </r>
       <r>  -11.5116    1.0000 </r>
       <r>   -9.5305    1.0000 </r>
       <r>   -9.5305    1.0000 </r>
       <r>   -9.4676    1.0000 </r>
       <r>   -9.4676    1.0000 </r>
       <r>   -9.4663    1.0000 </r>
       <r>   -9.4663    1.0000 </r>
       <r>   -4.9621    1.0000 </r>
       <r>   -4.9621    1.0000 </r>
       <r>   -4.9474    1.0000 </r>
       <r>   -4.9474    1.0000 </r>
       <r>   -4.6726    1.0000 </r>
       <r>   -4.6726    1.0000 </r>
       <r>   -4.6190    1.0000 </r>
       <r>   -4.6190    1.0000 </r>
       <r>   -4.3767    1.0000 </r>
       <r>   -4.3767    1.0000 </r>
       <r>   -4.3760    1.0000 </r>
       <r>   -4.3760    1.0000 </r>
       <r>   -1.2357    1.0000 </r>
       <r>   -1.2357    1.0000 </r>
       <r>   -1.1819    1.0000 </r>
       <r>   -1.1819    1.0000 </r>
       <r>   -1.0534    1.0000 </r>
       <r>   -1.0534    1.0000 </r>
       <r>    2.6243    0.0000 </r>
       <r>    2.6243    0.0000 </r>
       <r>    2.7575    0.0000 </r>
       <r>    2.7575    0.0000 </r>
       <r>    2.8959    0.0000 </r>
       <r>    2.8959    0.0000 </r>
       <r>    4.8082    0.0000 </r>
       <r>    4.8313    0.0000 </r>
       <r>    4.8630    0.0000 </r>
       <r>    4.8667    0.0000 </r>
      </set>
     </set>
    </set>
   </array>
  </eigenvalues>
  <separator name="orbital magnetization" >
   <v name="MAGDIPOLOUT">      0.00000000      0.00000000      0.00000000</v>
  </separator>
  <dos>
   <i name="efermi">      0.93779643 </i>
   <total>
    <array>
     <dimension dim="1">gridpoints</dimension>
     <dimension dim="2">spin</dimension>
     <field>energy</field>
     <field>total</field>
     <field>integrated</field>
     <set>
      <set comment="spin 1">
       <r>   -15.8417     0.0000     0.0000 </r>
       <r>   -15.8309     0.0000     0.0000 </r>
       <r>   -15.8200     0.0000     0.0000 </r>
       <r>   -15.8092     0.0000     0.0000 </r>
       <r>   -15.7983     0.0000     0.0000 </r>
       <r>   -15.7875     0.0000     0.0000 </r>
       <r>   -15.7766     0.0000     0.0000 </r>
       <r>   -15.7658     0.0000     0.0000 </r>
       <r>   -15.7549     0.0000     0.0000 </r>
       <r>   -15.7441     0.0000     0.0000 </r>
       <r>   -15.7332     0.0000     0.0000 </r>
       <r>   -15.7224     0.0000     0.0000 </r>
       <r>   -15.7115     0.0000     0.0000 </r>
       <r>   -15.7006     0.0000     0.0000 </r>
       <r>   -15.6898     0.0000     0.0000 </r>
       <r>   -15.6789     0.0000     0.0000 </r>
       <r>   -15.6681     0.0000     0.0000 </r>
       <r>   -15.6572     0.0000     0.0000 </r>
       <r>   -15.6464     0.0000     0.0000 </r>
       <r>   -15.6355     0.0000     0.0000 </r>
       <r>   -15.6247     0.0000     0.0000 </r>
       <r>   -15.6138     0.0000     0.0000 </r>
       <r>   -15.6030     0.0000     0.0000 </r>
       <r>   -15.5921     0.0000     0.0000 </r>
       <r>   -15.5813     0.0000     0.0000 </r>
       <r>   -15.5704     0.0000     0.0000 </r>
       <r>   -15.5596     0.0000     0.0000 </r>
       <r>   -15.5487     0.0000     0.0000 </r>
       <r>   -15.5379     0.0000     0.0000 </r>
       <r>   -15.5270     0.0000     0.0000 </r>
       <r>   -15.5162     0.0000     0.0000 </r>
       <r>   -15.5053     0.0000     0.0000 </r>
       <r>   -15.4944     0.0000     0.0000 </r>
       <r>   -15.4836     0.0000     0.0000 </r>
       <r>   -15.4727     0.0000     0.0000 </r>
       <r>   -15.4619     0.0000     0.0000 </r>
       <r>   -15.4510     0.0000     0.0000 </r>
       <r>   -15.4402     0.0000     0.0000 </r>
       <r>   -15.4293     0.0000     0.0000 </r>
       <r>   -15.4185     0.0000     0.0000 </r>
       <r>   -15.4076     0.0000     0.0000 </r>
       <r>   -15.3968     0.0000     0.0000 </r>
       <r>   -15.3859     0.0000     0.0000 </r>
       <r>   -15.3751     0.0000     0.0000 </r>
       <r>   -15.3642     0.0000     0.0000 </r>
       <r>   -15.3534     0.0000     0.0000 </r>
       <r>   -15.3425     0.0000     0.0000 </r>
       <r>   -15.3317     0.0000     0.0000 </r>
       <r>   -15.3208     0.0000     0.0000 </r>
       <r>   -15.3099     0.0000     0.0000 </r>
       <r>   -15.2991     0.0000     0.0000 </r>
       <r>   -15.2882     0.0000     0.0000 </r>
       <r>   -15.2774     0.0000     0.0000 </r>
       <r>   -15.2665     0.0000     0.0000 </r>
       <r>   -15.2557     0.0000     0.0000 </r>
       <r>   -15.2448     0.0000     0.0000 </r>
       <r>   -15.2340     0.0000     0.0000 </r>
       <r>   -15.2231     0.0000     0.0000 </r>
       <r>   -15.2123     0.0000     0.0000 </r>
       <r>   -15.2014     0.0000     0.0000 </r>
       <r>   -15.1906     0.0000     0.0000 </r>
       <r>   -15.1797     0.0000     0.0000 </r>
       <r>   -15.1689     0.0000     0.0000 </r>
       <r>   -15.1580     0.0000     0.0000 </r>
       <r>   -15.1472     0.0000     0.0000 </r>
       <r>   -15.1363     0.0000     0.0000 </r>
       <r>   -15.1255     0.0000     0.0000 </r>
       <r>   -15.1146     0.0000     0.0000 </r>
       <r>   -15.1037     0.0000     0.0000 </r>
       <r>   -15.0929     0.0000     0.0000 </r>
       <r>   -15.0820     0.0000     0.0000 </r>
       <r>   -15.0712     0.0000     0.0000 </r>
       <r>   -15.0603     0.0000     0.0000 </r>
       <r>   -15.0495     0.0000     0.0000 </r>
       <r>   -15.0386     0.0000     0.0000 </r>
       <r>   -15.0278     0.0000     0.0000 </r>
       <r>   -15.0169     0.0000     0.0000 </r>
       <r>   -15.0061     0.0000     0.0000 </r>
       <r>   -14.9952     0.0000     0.0000 </r>
       <r>   -14.9844     0.0000     0.0000 </r>
       <r>   -14.9735     0.0000     0.0000 </r>
       <r>   -14.9627     0.0000     0.0000 </r>
       <r>   -14.9518     0.0000     0.0000 </r>
       <r>   -14.9410     0.0000     0.0000 </r>
       <r>   -14.9301     0.0000     0.0000 </r>
       <r>   -14.9193     0.0000     0.0000 </r>
       <r>   -14.9084     0.0000     0.0000 </r>
       <r>   -14.8975     0.0000     0.0000 </r>
       <r>   -14.8867     0.0000     0.0000 </r>
       <r>   -14.8758     0.0162     0.0002 </r>
       <r>   -14.8650     0.6940     0.0077 </r>
       <r>   -14.8541     3.7655     0.0486 </r>
       <r>   -14.8433     2.8913     0.0800 </r>
       <r>   -14.8324     0.3075     0.0833 </r>
       <r>   -14.8216     0.0040     0.0833 </r>
       <r>   -14.8107     0.0000     0.0833 </r>
       <r>   -14.7999     0.0000     0.0833 </r>
       <r>   -14.7890     0.0000     0.0833 </r>
       <r>   -14.7782     0.0000     0.0833 </r>
       <r>   -14.7673     0.0000     0.0833 </r>
       <r>   -14.7565     0.0121     0.0835 </r>
       <r>   -14.7456     0.5893     0.0899 </r>
       <r>   -14.7348     3.5996     0.1289 </r>
       <r>   -14.7239     3.1002     0.1626 </r>
       <r>   -14.7131     0.3719     0.1666 </r>
       <r>   -14.7022     0.0055     0.1667 </r>
       <r>   -14.6913     0.0020     0.1667 </r>
       <r>   -14.6805     0.1990     0.1688 </r>
       <r>   -14.6696     2.4293     0.1952 </r>
       <r>   -14.6588     4.0548     0.2392 </r>
       <r>   -14.6479     0.9639     0.2497 </r>
       <r>   -14.6371     0.0295     0.2500 </r>
       <r>   -14.6262     0.0001     0.2500 </r>
       <r>   -14.6154     0.0000     0.2500 </r>
       <r>   -14.6045     0.0000     0.2500 </r>
       <r>   -14.5937     0.0000     0.2500 </r>
       <r>   -14.5828     0.0000     0.2500 </r>
       <r>   -14.5720     0.0000     0.2500 </r>
       <r>   -14.5611     0.0003     0.2500 </r>
       <r>   -14.5503     0.0791     0.2509 </r>
       <r>   -14.5394     2.2493     0.2753 </r>
       <r>   -14.5286     8.3234     0.3656 </r>
       <r>   -14.5177     4.8129     0.4178 </r>
       <r>   -14.5069     5.2883     0.4752 </r>
       <r>   -14.4960     8.0519     0.5626 </r>
       <r>   -14.4851     1.8541     0.5827 </r>
       <r>   -14.4743     0.0549     0.5833 </r>
       <r>   -14.4634     0.0002     0.5833 </r>
       <r>   -14.4526     0.0000     0.5833 </r>
       <r>   -14.4417     0.0004     0.5833 </r>
       <r>   -14.4309     0.0975     0.5844 </r>
       <r>   -14.4200     2.5069     0.6116 </r>
       <r>   -14.4092     8.5234     0.7041 </r>
       <r>   -14.3983     6.4666     0.7743 </r>
       <r>   -14.3875     8.6592     0.8683 </r>
       <r>   -14.3766     4.1774     0.9136 </r>
       <r>   -14.3658     0.3156     0.9170 </r>
       <r>   -14.3549     1.4499     0.9328 </r>
       <r>   -14.3441     8.0005     1.0196 </r>
       <r>   -14.3332    10.5111     1.1337 </r>
       <r>   -14.3224     8.7085     1.2282 </r>
       <r>   -14.3115     1.9516     1.2493 </r>
       <r>   -14.3007     0.0600     1.2500 </r>
       <r>   -14.2898     0.0002     1.2500 </r>
       <r>   -14.2789     0.0000     1.2500 </r>
       <r>   -14.2681     0.0000     1.2500 </r>
       <r>   -14.2572     0.0000     1.2500 </r>
       <r>   -14.2464     0.0000     1.2500 </r>
       <r>   -14.2355     0.0000     1.2500 </r>
       <r>   -14.2247     0.0000     1.2500 </r>
       <r>   -14.2138     0.0009     1.2500 </r>
       <r>   -14.2030     0.1958     1.2521 </r>
       <r>   -14.1921     5.0241     1.3067 </r>
       <r>   -14.1813    16.8699     1.4897 </r>
       <r>   -14.1704     8.0954     1.5776 </r>
       <r>   -14.1596     0.5243     1.5833 </r>
       <r>   -14.1487     0.0040     1.5833 </r>
       <r>   -14.1379     0.0000     1.5833 </r>
       <r>   -14.1270     0.0000     1.5833 </r>
       <r>   -14.1162     0.0000     1.5833 </r>
       <r>   -14.1053     0.0001     1.5833 </r>
       <r>   -14.0944     0.0535     1.5839 </r>
       <r>   -14.0836     2.4927     1.6110 </r>
       <r>   -14.0727    14.6298     1.7697 </r>
       <r>   -14.0619    12.1220     1.9013 </r>
       <r>   -14.0510     1.3965     1.9165 </r>
       <r>   -14.0402     0.0230     1.9167 </r>
       <r>   -14.0293     0.4566     1.9217 </r>
       <r>   -14.0185     7.5984     2.0041 </r>
       <r>   -14.0076    16.9924     2.1885 </r>
       <r>   -13.9968     5.4342     2.2475 </r>
       <r>   -13.9859     0.2285     2.2500 </r>
       <r>   -13.9751     0.0011     2.2500 </r>
       <r>   -13.9642     0.0000     2.2500 </r>
       <r>   -13.9534     0.0000     2.2500 </r>
       <r>   -13.9425     0.0000     2.2500 </r>
       <r>   -13.9317     0.0000     2.2500 </r>
       <r>   -13.9208     0.0000     2.2500 </r>
       <r>   -13.9100     0.0000     2.2500 </r>
       <r>   -13.8991     0.0000     2.2500 </r>
       <r>   -13.8882     0.0000     2.2500 </r>
       <r>   -13.8774     0.0000     2.2500 </r>
       <r>   -13.8665     0.0000     2.2500 </r>
       <r>   -13.8557     0.0000     2.2500 </r>
       <r>   -13.8448     0.0000     2.2500 </r>
       <r>   -13.8340     0.0000     2.2500 </r>
       <r>   -13.8231     0.0000     2.2500 </r>
       <r>   -13.8123     0.0000     2.2500 </r>
       <r>   -13.8014     0.0000     2.2500 </r>
       <r>   -13.7906     0.0000     2.2500 </r>
       <r>   -13.7797     0.0000     2.2500 </r>
       <r>   -13.7689     0.0000     2.2500 </r>
       <r>   -13.7580     0.0000     2.2500 </r>
       <r>   -13.7472     0.0000     2.2500 </r>
       <r>   -13.7363     0.0000     2.2500 </r>
       <r>   -13.7255     0.0000     2.2500 </r>
       <r>   -13.7146     0.0000     2.2500 </r>
       <r>   -13.7038     0.0000     2.2500 </r>
       <r>   -13.6929     0.0000     2.2500 </r>
       <r>   -13.6820     0.0000     2.2500 </r>
       <r>   -13.6712     0.0000     2.2500 </r>
       <r>   -13.6603     0.0000     2.2500 </r>
       <r>   -13.6495     0.0000     2.2500 </r>
       <r>   -13.6386     0.0000     2.2500 </r>
       <r>   -13.6278     0.0000     2.2500 </r>
       <r>   -13.6169     0.0000     2.2500 </r>
       <r>   -13.6061     0.0010     2.2500 </r>
       <r>   -13.5952     0.1661     2.2518 </r>
       <r>   -13.5844     3.2682     2.2873 </r>
       <r>   -13.5735     8.5582     2.3802 </r>
       <r>   -13.5627     3.4737     2.4179 </r>
       <r>   -13.5518     4.2502     2.4640 </r>
       <r>   -13.5410     8.4233     2.5554 </r>
       <r>   -13.5301     2.4779     2.5823 </r>
       <r>   -13.5193     0.0953     2.5833 </r>
       <r>   -13.5084     0.0006     2.5833 </r>
       <r>   -13.4976     0.0492     2.5839 </r>
       <r>   -13.4867     1.7591     2.6030 </r>
       <r>   -13.4758     8.7267     2.6977 </r>
       <r>   -13.4650    11.4350     2.8218 </r>
       <r>   -13.4541     7.5930     2.9042 </r>
       <r>   -13.4433     1.9618     2.9255 </r>
       <r>   -13.4324     6.4398     2.9954 </r>
       <r>   -13.4216     7.0383     3.0717 </r>
       <r>   -13.4107     2.3889     3.0977 </r>
       <r>   -13.3999     7.4398     3.1784 </r>
       <r>   -13.3890     5.9300     3.2428 </r>
       <r>   -13.3782     0.6579     3.2499 </r>
       <r>   -13.3673     0.0089     3.2500 </r>
       <r>   -13.3565     0.0000     3.2500 </r>
       <r>   -13.3456     0.0000     3.2500 </r>
       <r>   -13.3348     0.0000     3.2500 </r>
       <r>   -13.3239     0.0000     3.2500 </r>
       <r>   -13.3131     0.0000     3.2500 </r>
       <r>   -13.3022     0.0000     3.2500 </r>
       <r>   -13.2914     0.0000     3.2500 </r>
       <r>   -13.2805     0.0033     3.2500 </r>
       <r>   -13.2696     0.4595     3.2550 </r>
       <r>   -13.2588     7.8522     3.3402 </r>
       <r>   -13.2479    22.5620     3.5851 </r>
       <r>   -13.2371    22.4459     3.8287 </r>
       <r>   -13.2262     7.6657     3.9119 </r>
       <r>   -13.2154     0.4372     3.9166 </r>
       <r>   -13.2045     0.0031     3.9167 </r>
       <r>   -13.1937     0.0409     3.9171 </r>
       <r>   -13.1828     2.1387     3.9403 </r>
       <r>   -13.1720    13.9954     4.0922 </r>
       <r>   -13.1611    13.6553     4.2404 </r>
       <r>   -13.1503    11.3459     4.3635 </r>
       <r>   -13.1394    17.4835     4.5533 </r>
       <r>   -13.1286    15.4021     4.7204 </r>
       <r>   -13.1177    15.2204     4.8856 </r>
       <r>   -13.1069     3.4335     4.9229 </r>
       <r>   -13.0960     8.8728     5.0192 </r>
       <r>   -13.0852    16.6295     5.1996 </r>
       <r>   -13.0743     4.4818     5.2483 </r>
       <r>   -13.0634     0.1570     5.2500 </r>
       <r>   -13.0526     0.0006     5.2500 </r>
       <r>   -13.0417     0.0000     5.2500 </r>
       <r>   -13.0309     0.0000     5.2500 </r>
       <r>   -13.0200     0.0000     5.2500 </r>
       <r>   -13.0092     0.0000     5.2500 </r>
       <r>   -12.9983     0.0000     5.2500 </r>
       <r>   -12.9875     0.0000     5.2500 </r>
       <r>   -12.9766     0.0000     5.2500 </r>
       <r>   -12.9658     0.0000     5.2500 </r>
       <r>   -12.9549     0.0000     5.2500 </r>
       <r>   -12.9441     0.0000     5.2500 </r>
       <r>   -12.9332     0.0000     5.2500 </r>
       <r>   -12.9224     0.0000     5.2500 </r>
       <r>   -12.9115     0.0000     5.2500 </r>
       <r>   -12.9007     0.0000     5.2500 </r>
       <r>   -12.8898     0.0000     5.2500 </r>
       <r>   -12.8790     0.0000     5.2500 </r>
       <r>   -12.8681     0.0000     5.2500 </r>
       <r>   -12.8572     0.0000     5.2500 </r>
       <r>   -12.8464     0.0000     5.2500 </r>
       <r>   -12.8355     0.0000     5.2500 </r>
       <r>   -12.8247     0.0000     5.2500 </r>
       <r>   -12.8138     0.0000     5.2500 </r>
       <r>   -12.8030     0.0000     5.2500 </r>
       <r>   -12.7921     0.0000     5.2500 </r>
       <r>   -12.7813     0.0000     5.2500 </r>
       <r>   -12.7704     0.0000     5.2500 </r>
       <r>   -12.7596     0.0000     5.2500 </r>
       <r>   -12.7487     0.0000     5.2500 </r>
       <r>   -12.7379     0.0000     5.2500 </r>
       <r>   -12.7270     0.0000     5.2500 </r>
       <r>   -12.7162     0.0000     5.2500 </r>
       <r>   -12.7053     0.0000     5.2500 </r>
       <r>   -12.6945     0.0000     5.2500 </r>
       <r>   -12.6836     0.0000     5.2500 </r>
       <r>   -12.6727     0.0000     5.2500 </r>
       <r>   -12.6619     0.0000     5.2500 </r>
       <r>   -12.6510     0.0000     5.2500 </r>
       <r>   -12.6402     0.0000     5.2500 </r>
       <r>   -12.6293     0.0000     5.2500 </r>
       <r>   -12.6185     0.0186     5.2502 </r>
       <r>   -12.6076     1.0117     5.2612 </r>
       <r>   -12.5968     6.8747     5.3358 </r>
       <r>   -12.5859     6.5614     5.4070 </r>
       <r>   -12.5751     0.8762     5.4165 </r>
       <r>   -12.5642     0.0145     5.4167 </r>
       <r>   -12.5534     0.0000     5.4167 </r>
       <r>   -12.5425     0.0000     5.4167 </r>
       <r>   -12.5317     0.0000     5.4167 </r>
       <r>   -12.5208     0.0000     5.4167 </r>
       <r>   -12.5100     0.0000     5.4167 </r>
       <r>   -12.4991     0.0000     5.4167 </r>
       <r>   -12.4883     0.0035     5.4167 </r>
       <r>   -12.4774     0.3692     5.4207 </r>
       <r>   -12.4665     4.7064     5.4718 </r>
       <r>   -12.4557     8.1843     5.5606 </r>
       <r>   -12.4448     2.0287     5.5826 </r>
       <r>   -12.4340     0.0651     5.5833 </r>
       <r>   -12.4231     0.0296     5.5837 </r>
       <r>   -12.4123     1.3141     5.5979 </r>
       <r>   -12.4014     7.6164     5.6806 </r>
       <r>   -12.3906    11.0310     5.8003 </r>
       <r>   -12.3797    19.2500     6.0092 </r>
       <r>   -12.3689    12.3952     6.1437 </r>
       <r>   -12.3580     2.0389     6.1658 </r>
       <r>   -12.3472     0.0751     6.1667 </r>
       <r>   -12.3363     0.0823     6.1676 </r>
       <r>   -12.3255     3.1607     6.2019 </r>
       <r>   -12.3146    15.5531     6.3707 </r>
       <r>   -12.3038    10.8835     6.4888 </r>
       <r>   -12.2929     2.8059     6.5192 </r>
       <r>   -12.2821    18.6529     6.7217 </r>
       <r>   -12.2712    31.6156     7.0648 </r>
       <r>   -12.2603     8.9996     7.1624 </r>
       <r>   -12.2495     0.3877     7.1666 </r>
       <r>   -12.2386     0.0021     7.1667 </r>
       <r>   -12.2278     0.0000     7.1667 </r>
       <r>   -12.2169     0.0000     7.1667 </r>
       <r>   -12.2061     0.0000     7.1667 </r>
       <r>   -12.1952     0.0000     7.1667 </r>
       <r>   -12.1844     0.0001     7.1667 </r>
       <r>   -12.1735     0.0347     7.1670 </r>
       <r>   -12.1627     1.9465     7.1882 </r>
       <r>   -12.1518    13.5869     7.3356 </r>
       <r>   -12.1410    13.6504     7.4838 </r>
       <r>   -12.1301     4.8679     7.5366 </r>
       <r>   -12.1193     3.6876     7.5766 </r>
       <r>   -12.1084     1.5728     7.5937 </r>
       <r>   -12.0976    10.4951     7.7076 </r>
       <r>   -12.0867    15.8678     7.8798 </r>
       <r>   -12.0759     5.5809     7.9404 </r>
       <r>   -12.0650     8.3859     8.0314 </r>
       <r>   -12.0541     4.6309     8.0816 </r>
       <r>   -12.0433     3.6372     8.1211 </r>
       <r>   -12.0324     8.5581     8.2140 </r>
       <r>   -12.0216     3.1629     8.2483 </r>
       <r>   -12.0107     0.1552     8.2500 </r>
       <r>   -11.9999     0.0009     8.2500 </r>
       <r>   -11.9890     0.0027     8.2500 </r>
       <r>   -11.9782     0.3162     8.2535 </r>
       <r>   -11.9673     4.4384     8.3016 </r>
       <r>   -11.9565     9.4218     8.4039 </r>
       <r>   -11.9456     6.3927     8.4733 </r>
       <r>   -11.9348     2.3074     8.4983 </r>
       <r>   -11.9239     0.7184     8.5061 </r>
       <r>   -11.9131     5.5664     8.5665 </r>
       <r>   -11.9022     7.6863     8.6499 </r>
       <r>   -11.8914     1.5051     8.6663 </r>
       <r>   -11.8805     0.0433     8.6667 </r>
       <r>   -11.8697     0.6606     8.6739 </r>
       <r>   -11.8588     8.9711     8.7713 </r>
       <r>   -11.8479    16.5636     8.9510 </r>
       <r>   -11.8371     4.3636     8.9984 </r>
       <r>   -11.8262     0.1492     9.0000 </r>
       <r>   -11.8154     0.0180     9.0002 </r>
       <r>   -11.8045     0.9739     9.0108 </r>
       <r>   -11.7937     6.7928     9.0845 </r>
       <r>   -11.7828     6.7548     9.1578 </r>
       <r>   -11.7720     4.5845     9.2075 </r>
       <r>   -11.7611    16.0839     9.3821 </r>
       <r>   -11.7503    10.0092     9.4907 </r>
       <r>   -11.7394     1.5808     9.5079 </r>
       <r>   -11.7286     9.3635     9.6095 </r>
       <r>   -11.7177    16.3957     9.7874 </r>
       <r>   -11.7069     4.0965     9.8319 </r>
       <r>   -11.6960     0.1324     9.8333 </r>
       <r>   -11.6852     0.0005     9.8333 </r>
       <r>   -11.6743     0.0000     9.8333 </r>
       <r>   -11.6635     0.0000     9.8333 </r>
       <r>   -11.6526     0.0000     9.8333 </r>
       <r>   -11.6417     0.0011     9.8333 </r>
       <r>   -11.6309     0.1802     9.8353 </r>
       <r>   -11.6200     3.3994     9.8722 </r>
       <r>   -11.6092     8.5511     9.9650 </r>
       <r>   -11.5983     3.0779     9.9984 </r>
       <r>   -11.5875     0.1779    10.0003 </r>
       <r>   -11.5766     1.3562    10.0150 </r>
       <r>   -11.5658     7.4841    10.0963 </r>
       <r>   -11.5549     5.8452    10.1597 </r>
       <r>   -11.5441     0.6330    10.1666 </r>
       <r>   -11.5332     0.0442    10.1671 </r>
       <r>   -11.5224     1.9794    10.1885 </r>
       <r>   -11.5115    13.6528    10.3367 </r>
       <r>   -11.5007    13.2227    10.4802 </r>
       <r>   -11.4898     1.7934    10.4997 </r>
       <r>   -11.4790     0.0302    10.5000 </r>
       <r>   -11.4681     0.0003    10.5000 </r>
       <r>   -11.4572     0.0878    10.5010 </r>
       <r>   -11.4464     3.2826    10.5366 </r>
       <r>   -11.4355    15.6889    10.7068 </r>
       <r>   -11.4247    10.6487    10.8224 </r>
       <r>   -11.4138     0.9949    10.8332 </r>
       <r>   -11.4030     0.0113    10.8333 </r>
       <r>   -11.3921     0.0000    10.8333 </r>
       <r>   -11.3813     0.0000    10.8333 </r>
       <r>   -11.3704     0.0000    10.8333 </r>
       <r>   -11.3596     0.0108    10.8335 </r>
       <r>   -11.3487     0.9699    10.8440 </r>
       <r>   -11.3379    10.5406    10.9584 </r>
       <r>   -11.3270    15.7642    11.1295 </r>
       <r>   -11.3162     4.1695    11.1747 </r>
       <r>   -11.3053     9.9478    11.2827 </r>
       <r>   -11.2945    16.1469    11.4579 </r>
       <r>   -11.2836     3.7656    11.4988 </r>
       <r>   -11.2728     0.1131    11.5000 </r>
       <r>   -11.2619     0.0004    11.5000 </r>
       <r>   -11.2510     0.0000    11.5000 </r>
       <r>   -11.2402     0.0000    11.5000 </r>
       <r>   -11.2293     0.0000    11.5000 </r>
       <r>   -11.2185     0.0000    11.5000 </r>
       <r>   -11.2076     0.0000    11.5000 </r>
       <r>   -11.1968     0.0000    11.5000 </r>
       <r>   -11.1859     0.0000    11.5000 </r>
       <r>   -11.1751     0.0000    11.5000 </r>
       <r>   -11.1642     0.0000    11.5000 </r>
       <r>   -11.1534     0.0000    11.5000 </r>
       <r>   -11.1425     0.0000    11.5000 </r>
       <r>   -11.1317     0.0000    11.5000 </r>
       <r>   -11.1208     0.0000    11.5000 </r>
       <r>   -11.1100     0.0000    11.5000 </r>
       <r>   -11.0991     0.0000    11.5000 </r>
       <r>   -11.0883     0.0000    11.5000 </r>
       <r>   -11.0774     0.0000    11.5000 </r>
       <r>   -11.0666     0.0002    11.5000 </r>
       <r>   -11.0557     0.0482    11.5005 </r>
       <r>   -11.0448     1.7273    11.5193 </r>
       <r>   -11.0340     7.9330    11.6054 </r>
       <r>   -11.0231     5.1791    11.6616 </r>
       <r>   -11.0123     0.4645    11.6666 </r>
       <r>   -11.0014     0.0050    11.6667 </r>
       <r>   -10.9906     0.0000    11.6667 </r>
       <r>   -10.9797     0.0000    11.6667 </r>
       <r>   -10.9689     0.0000    11.6667 </r>
       <r>   -10.9580     0.0000    11.6667 </r>
       <r>   -10.9472     0.0000    11.6667 </r>
       <r>   -10.9363     0.0000    11.6667 </r>
       <r>   -10.9255     0.0000    11.6667 </r>
       <r>   -10.9146     0.0000    11.6667 </r>
       <r>   -10.9038     0.0000    11.6667 </r>
       <r>   -10.8929     0.0000    11.6667 </r>
       <r>   -10.8821     0.0000    11.6667 </r>
       <r>   -10.8712     0.0000    11.6667 </r>
       <r>   -10.8604     0.0000    11.6667 </r>
       <r>   -10.8495     0.0000    11.6667 </r>
       <r>   -10.8386     0.0000    11.6667 </r>
       <r>   -10.8278     0.0001    11.6667 </r>
       <r>   -10.8169     0.0356    11.6671 </r>
       <r>   -10.8061     1.4625    11.6829 </r>
       <r>   -10.7952     7.6321    11.7658 </r>
       <r>   -10.7844     5.6429    11.8270 </r>
       <r>   -10.7735     0.5769    11.8333 </r>
       <r>   -10.7627     0.0072    11.8333 </r>
       <r>   -10.7518     0.0000    11.8333 </r>
       <r>   -10.7410     0.0000    11.8333 </r>
       <r>   -10.7301     0.0000    11.8333 </r>
       <r>   -10.7193     0.0000    11.8333 </r>
       <r>   -10.7084     0.0000    11.8333 </r>
       <r>   -10.6976     0.0000    11.8333 </r>
       <r>   -10.6867     0.0000    11.8333 </r>
       <r>   -10.6759     0.0000    11.8333 </r>
       <r>   -10.6650     0.0000    11.8333 </r>
       <r>   -10.6542     0.0000    11.8333 </r>
       <r>   -10.6433     0.0176    11.8335 </r>
       <r>   -10.6324     0.9819    11.8442 </r>
       <r>   -10.6216     6.8100    11.9181 </r>
       <r>   -10.6107     6.6288    11.9900 </r>
       <r>   -10.5999     0.9035    11.9998 </r>
       <r>   -10.5890     0.0153    12.0000 </r>
       <r>   -10.5782     0.0000    12.0000 </r>
       <r>   -10.5673     0.0000    12.0000 </r>
       <r>   -10.5565     0.0000    12.0000 </r>
       <r>   -10.5456     0.0000    12.0000 </r>
       <r>   -10.5348     0.0000    12.0000 </r>
       <r>   -10.5239     0.0000    12.0000 </r>
       <r>   -10.5131     0.0000    12.0000 </r>
       <r>   -10.5022     0.0000    12.0000 </r>
       <r>   -10.4914     0.0000    12.0000 </r>
       <r>   -10.4805     0.0000    12.0000 </r>
       <r>   -10.4697     0.0000    12.0000 </r>
       <r>   -10.4588     0.0000    12.0000 </r>
       <r>   -10.4480     0.0000    12.0000 </r>
       <r>   -10.4371     0.0000    12.0000 </r>
       <r>   -10.4262     0.0000    12.0000 </r>
       <r>   -10.4154     0.0000    12.0000 </r>
       <r>   -10.4045     0.0000    12.0000 </r>
       <r>   -10.3937     0.0000    12.0000 </r>
       <r>   -10.3828     0.0000    12.0000 </r>
       <r>   -10.3720     0.0000    12.0000 </r>
       <r>   -10.3611     0.0000    12.0000 </r>
       <r>   -10.3503     0.0000    12.0000 </r>
       <r>   -10.3394     0.0000    12.0000 </r>
       <r>   -10.3286     0.0000    12.0000 </r>
       <r>   -10.3177     0.0000    12.0000 </r>
       <r>   -10.3069     0.0000    12.0000 </r>
       <r>   -10.2960     0.0000    12.0000 </r>
       <r>   -10.2852     0.0000    12.0000 </r>
       <r>   -10.2743     0.0001    12.0000 </r>
       <r>   -10.2635     0.0250    12.0003 </r>
       <r>   -10.2526     1.1991    12.0133 </r>
       <r>   -10.2418     7.2353    12.0918 </r>
       <r>   -10.2309     6.1575    12.1586 </r>
       <r>   -10.2200     0.7295    12.1666 </r>
       <r>   -10.2092     0.0106    12.1667 </r>
       <r>   -10.1983     0.0000    12.1667 </r>
       <r>   -10.1875     0.0060    12.1667 </r>
       <r>   -10.1766     0.5188    12.1724 </r>
       <r>   -10.1658     5.4151    12.2311 </r>
       <r>   -10.1549     7.9498    12.3174 </r>
       <r>   -10.1441     4.8258    12.3698 </r>
       <r>   -10.1332     8.5978    12.4631 </r>
       <r>   -10.1224     3.2373    12.4982 </r>
       <r>   -10.1115     0.1628    12.5000 </r>
       <r>   -10.1007     0.0010    12.5000 </r>
       <r>   -10.0898     0.0000    12.5000 </r>
       <r>   -10.0790     0.0000    12.5000 </r>
       <r>   -10.0681     0.0000    12.5000 </r>
       <r>   -10.0573     0.0000    12.5000 </r>
       <r>   -10.0464     0.0000    12.5000 </r>
       <r>   -10.0355     0.0000    12.5000 </r>
       <r>   -10.0247     0.0000    12.5000 </r>
       <r>   -10.0138     0.0000    12.5000 </r>
       <r>   -10.0030     0.0000    12.5000 </r>
       <r>    -9.9921     0.0000    12.5000 </r>
       <r>    -9.9813     0.0000    12.5000 </r>
       <r>    -9.9704     0.0000    12.5000 </r>
       <r>    -9.9596     0.0000    12.5000 </r>
       <r>    -9.9487     0.0000    12.5000 </r>
       <r>    -9.9379     0.0000    12.5000 </r>
       <r>    -9.9270     0.0000    12.5000 </r>
       <r>    -9.9162     0.0000    12.5000 </r>
       <r>    -9.9053     0.0000    12.5000 </r>
       <r>    -9.8945     0.0000    12.5000 </r>
       <r>    -9.8836     0.0000    12.5000 </r>
       <r>    -9.8728     0.0000    12.5000 </r>
       <r>    -9.8619     0.0000    12.5000 </r>
       <r>    -9.8511     0.0000    12.5000 </r>
       <r>    -9.8402     0.0000    12.5000 </r>
       <r>    -9.8293     0.0000    12.5000 </r>
       <r>    -9.8185     0.0000    12.5000 </r>
       <r>    -9.8076     0.0000    12.5000 </r>
       <r>    -9.7968     0.0000    12.5000 </r>
       <r>    -9.7859     0.0000    12.5000 </r>
       <r>    -9.7751     0.0108    12.5001 </r>
       <r>    -9.7642     0.9706    12.5107 </r>
       <r>    -9.7534    10.5435    12.6251 </r>
       <r>    -9.7425    15.7542    12.7961 </r>
       <r>    -9.7317     3.3442    12.8323 </r>
       <r>    -9.7208     0.0908    12.8333 </r>
       <r>    -9.7100     0.0003    12.8333 </r>
       <r>    -9.6991     0.0000    12.8333 </r>
       <r>    -9.6883     0.0000    12.8333 </r>
       <r>    -9.6774     0.0000    12.8333 </r>
       <r>    -9.6666     0.0000    12.8333 </r>
       <r>    -9.6557     0.0000    12.8333 </r>
       <r>    -9.6449     0.0000    12.8333 </r>
       <r>    -9.6340     0.0000    12.8333 </r>
       <r>    -9.6231     0.0001    12.8333 </r>
       <r>    -9.6123     0.0451    12.8338 </r>
       <r>    -9.6014     2.2607    12.8584 </r>
       <r>    -9.5906    14.2233    13.0127 </r>
       <r>    -9.5797    12.6038    13.1495 </r>
       <r>    -9.5689     1.5576    13.1664 </r>
       <r>    -9.5580     0.0245    13.1667 </r>
       <r>    -9.5472     0.1386    13.1682 </r>
       <r>    -9.5363     2.9911    13.2006 </r>
       <r>    -9.5255     8.5435    13.2934 </r>
       <r>    -9.5146     3.4915    13.3313 </r>
       <r>    -9.5038     0.2162    13.3336 </r>
       <r>    -9.4929     1.6325    13.3513 </r>
       <r>    -9.4821    13.2988    13.4956 </r>
       <r>    -9.4712    21.9231    13.7336 </r>
       <r>    -9.4604    19.0486    13.9403 </r>
       <r>    -9.4495     5.4778    13.9997 </r>
       <r>    -9.4387     5.2121    14.0563 </r>
       <r>    -9.4278    16.8616    14.2393 </r>
       <r>    -9.4169     8.3180    14.3296 </r>
       <r>    -9.4061     3.9818    14.3728 </r>
       <r>    -9.3952     8.5512    14.4656 </r>
       <r>    -9.3844     3.0277    14.4985 </r>
       <r>    -9.3735     0.1420    14.5000 </r>
       <r>    -9.3627     0.0008    14.5000 </r>
       <r>    -9.3518     0.0000    14.5000 </r>
       <r>    -9.3410     0.0000    14.5000 </r>
       <r>    -9.3301     0.0000    14.5000 </r>
       <r>    -9.3193     0.0000    14.5000 </r>
       <r>    -9.3084     0.0000    14.5000 </r>
       <r>    -9.2976     0.0157    14.5002 </r>
       <r>    -9.2867     1.2151    14.5134 </r>
       <r>    -9.2759    11.5113    14.6383 </r>
       <r>    -9.2650    15.1017    14.8022 </r>
       <r>    -9.2542     2.8044    14.8326 </r>
       <r>    -9.2433     0.0660    14.8333 </r>
       <r>    -9.2325     0.0002    14.8333 </r>
       <r>    -9.2216     0.0000    14.8333 </r>
       <r>    -9.2107     0.0013    14.8333 </r>
       <r>    -9.1999     0.2484    14.8360 </r>
       <r>    -9.1890     5.8099    14.8991 </r>
       <r>    -9.1782    20.1797    15.1181 </r>
       <r>    -9.1673    15.8963    15.2906 </r>
       <r>    -9.1565     3.7590    15.3314 </r>
       <r>    -9.1456     0.1761    15.3333 </r>
       <r>    -9.1348     0.0011    15.3333 </r>
       <r>    -9.1239     0.0000    15.3333 </r>
       <r>    -9.1131     0.0000    15.3333 </r>
       <r>    -9.1022     0.0000    15.3333 </r>
       <r>    -9.0914     0.0000    15.3333 </r>
       <r>    -9.0805     0.0000    15.3333 </r>
       <r>    -9.0697     0.0006    15.3333 </r>
       <r>    -9.0588     0.1555    15.3350 </r>
       <r>    -9.0480     4.4588    15.3834 </r>
       <r>    -9.0371    16.6172    15.5638 </r>
       <r>    -9.0263     8.9218    15.6606 </r>
       <r>    -9.0154     3.8178    15.7020 </r>
       <r>    -9.0045    15.5638    15.8709 </r>
       <r>    -8.9937    10.8372    15.9885 </r>
       <r>    -8.9828     1.0438    15.9999 </r>
       <r>    -8.9720     0.0122    16.0000 </r>
       <r>    -8.9611     0.0000    16.0000 </r>
       <r>    -8.9503     0.0000    16.0000 </r>
       <r>    -8.9394     0.0000    16.0000 </r>
       <r>    -8.9286     0.0004    16.0000 </r>
       <r>    -8.9177     0.0994    16.0011 </r>
       <r>    -8.9069     2.6696    16.0301 </r>
       <r>    -8.8960    12.7480    16.1684 </r>
       <r>    -8.8852    20.5642    16.3916 </r>
       <r>    -8.8743     9.3137    16.4927 </r>
       <r>    -8.8635     1.1616    16.5053 </r>
       <r>    -8.8526     5.7747    16.5679 </r>
       <r>    -8.8418    14.8179    16.7288 </r>
       <r>    -8.8309    17.5421    16.9191 </r>
       <r>    -8.8200     6.9354    16.9944 </r>
       <r>    -8.8092     0.5110    16.9999 </r>
       <r>    -8.7983     0.0217    17.0002 </r>
       <r>    -8.7875     1.2552    17.0138 </r>
       <r>    -8.7766    11.6536    17.1403 </r>
       <r>    -8.7658    14.9960    17.3030 </r>
       <r>    -8.7549     2.7309    17.3327 </r>
       <r>    -8.7441     0.2207    17.3351 </r>
       <r>    -8.7332     3.1883    17.3697 </r>
       <r>    -8.7224     8.5559    17.4625 </r>
       <r>    -8.7115     3.2856    17.4982 </r>
       <r>    -8.7007     0.1679    17.5000 </r>
       <r>    -8.6898     0.0064    17.5001 </r>
       <r>    -8.6790     0.6329    17.5069 </r>
       <r>    -8.6681     8.8053    17.6025 </r>
       <r>    -8.6573    16.6300    17.7830 </r>
       <r>    -8.6464     4.4830    17.8316 </r>
       <r>    -8.6356     0.1574    17.8333 </r>
       <r>    -8.6247     0.0579    17.8340 </r>
       <r>    -8.6138     1.3598    17.8487 </r>
       <r>    -8.6030     4.2485    17.8948 </r>
[...]
        <r>  0.0000  0.0066  0.0118  0.0219  0.0000  0.0000  0.0000  0.0000  0.0000 </r>
        <r>  0.0000  0.0143  0.0255  0.0101  0.0000  0.0000  0.0000  0.0000  0.0000 </r>
        <r>  0.0000  0.0066  0.0118  0.0219  0.0000  0.0000  0.0000  0.0000  0.0000 </r>
        <r>  0.0000  0.0143  0.0255  0.0101  0.0000  0.0000  0.0000  0.0000  0.0000 </r>
        <r>  0.0202  0.0028  0.0091  0.0024  0.0000  0.0000  0.0000  0.0000  0.0000 </r>
        <r>  0.0093  0.0013  0.0042  0.0053  0.0000  0.0000  0.0000  0.0000  0.0000 </r>
        <r>  0.0213  0.0047  0.0152  0.0047  0.0000  0.0000  0.0000  0.0000  0.0000 </r>
        <r>  0.0098  0.0022  0.0070  0.0101  0.0000  0.0000  0.0000  0.0000  0.0000 </r>
       </set>
       <set comment="band 25">
        <r>  0.0002  0.0027  0.0012  0.0000  0.0000  0.0000  0.0000  0.0000  0.0000 </r>
        <r>  0.0000  0.0001  0.0000  0.0008  0.0000  0.0000  0.0000  0.0000  0.0000 </r>
        <r>  0.0005  0.0001  0.0023  0.0001  0.0000  0.0000  0.0000  0.0000  0.0000 </r>
        <r>  0.0000  0.0000  0.0001  0.0015  0.0000  0.0000  0.0000  0.0000  0.0000 </r>
        <r>  0.0008  0.0060  0.0009  0.0184  0.0000  0.0000  0.0000  0.0000  0.0000 </r>
        <r>  0.0192  0.1471  0.0212  0.0007  0.0000  0.0000  0.0000  0.0000  0.0000 </r>
        <r>  0.0008  0.0060  0.0009  0.0184  0.0000  0.0000  0.0000  0.0000  0.0000 </r>
        <r>  0.0192  0.1471  0.0212  0.0007  0.0000  0.0000  0.0000  0.0000  0.0000 </r>
        <r>  0.0005  0.0001  0.0023  0.0001  0.0000  0.0000  0.0000  0.0000  0.0000 </r>
        <r>  0.0000  0.0000  0.0001  0.0015  0.0000  0.0000  0.0000  0.0000  0.0000 </r>
        <r>  0.0002  0.0027  0.0012  0.0000  0.0000  0.0000  0.0000  0.0000  0.0000 </r>
        <r>  0.0000  0.0001  0.0000  0.0008  0.0000  0.0000  0.0000  0.0000  0.0000 </r>
       </set>
       <set comment="band 26">
        <r>  0.0000  0.0001  0.0000  0.0008  0.0000  0.0000  0.0000  0.0000  0.0000 </r>
        <r>  0.0002  0.0027  0.0012  0.0000  0.0000  0.0000  0.0000  0.0000  0.0000 </r>
        <r>  0.0000  0.0000  0.0001  0.0015  0.0000  0.0000  0.0000  0.0000  0.0000 </r>
        <r>  0.0005  0.0001  0.0023  0.0001  0.0000  0.0000  0.0000  0.0000  0.0000 </r>
        <r>  0.0192  0.1471  0.0212  0.0007  0.0000  0.0000  0.0000  0.0000  0.0000 </r>
        <r>  0.0008  0.0060  0.0009  0.0184  0.0000  0.0000  0.0000  0.0000  0.0000 </r>
        <r>  0.0192  0.1471  0.0212  0.0007  0.0000  0.0000  0.0000  0.0000  0.0000 </r>
        <r>  0.0008  0.0060  0.0009  0.0184  0.0000  0.0000  0.0000  0.0000  0.0000 </r>
        <r>  0.0000  0.0000  0.0001  0.0015  0.0000  0.0000  0.0000  0.0000  0.0000 </r>
        <r>  0.0005  0.0001  0.0023  0.0001  0.0000  0.0000  0.0000  0.0000  0.0000 </r>
        <r>  0.0000  0.0001  0.0000  0.0008  0.0000  0.0000  0.0000  0.0000  0.0000 </r>
        <r>  0.0002  0.0027  0.0012  0.0000  0.0000  0.0000  0.0000  0.0000  0.0000 </r>
       </set>
       <set comment="band 27">
        <r>  0.0004  0.0023  0.0004  0.0104  0.0000  0.0000  0.0000  0.0000  0.0000 </r>
        <r>  0.0122  0.0757  0.0122  0.0003  0.0000  0.0000  0.0000  0.0000  0.0000 </r>
        <r>  0.0002  0.0023  0.0003  0.0088  0.0000  0.0000  0.0000  0.0000  0.0000 </r>
        <r>  0.0078  0.0755  0.0098  0.0003  0.0000  0.0000  0.0000  0.0000  0.0000 </r>
        <r>  0.0007  0.0020  0.0001  0.0000  0.0000  0.0000  0.0000  0.0000  0.0000 </r>
        <r>  0.0000  0.0001  0.0000  0.0000  0.0000  0.0000  0.0000  0.0000  0.0000 </r>
        <r>  0.0007  0.0020  0.0001  0.0000  0.0000  0.0000  0.0000  0.0000  0.0000 </r>
        <r>  0.0000  0.0001  0.0000  0.0000  0.0000  0.0000  0.0000  0.0000  0.0000 </r>
        <r>  0.0002  0.0023  0.0003  0.0088  0.0000  0.0000  0.0000  0.0000  0.0000 </r>
        <r>  0.0078  0.0755  0.0098  0.0003  0.0000  0.0000  0.0000  0.0000  0.0000 </r>
        <r>  0.0004  0.0023  0.0004  0.0104  0.0000  0.0000  0.0000  0.0000  0.0000 </r>
        <r>  0.0122  0.0757  0.0122  0.0003  0.0000  0.0000  0.0000  0.0000  0.0000 </r>
       </set>
       <set comment="band 28">
        <r>  0.0122  0.0757  0.0122  0.0003  0.0000  0.0000  0.0000  0.0000  0.0000 </r>
        <r>  0.0004  0.0023  0.0004  0.0104  0.0000  0.0000  0.0000  0.0000  0.0000 </r>
        <r>  0.0078  0.0755  0.0098  0.0003  0.0000  0.0000  0.0000  0.0000  0.0000 </r>
        <r>  0.0002  0.0023  0.0003  0.0088  0.0000  0.0000  0.0000  0.0000  0.0000 </r>
        <r>  0.0000  0.0001  0.0000  0.0000  0.0000  0.0000  0.0000  0.0000  0.0000 </r>
        <r>  0.0007  0.0020  0.0001  0.0000  0.0000  0.0000  0.0000  0.0000  0.0000 </r>
        <r>  0.0000  0.0001  0.0000  0.0000  0.0000  0.0000  0.0000  0.0000  0.0000 </r>
        <r>  0.0007  0.0020  0.0001  0.0000  0.0000  0.0000  0.0000  0.0000  0.0000 </r>
        <r>  0.0078  0.0755  0.0098  0.0003  0.0000  0.0000  0.0000  0.0000  0.0000 </r>
        <r>  0.0002  0.0023  0.0003  0.0088  0.0000  0.0000  0.0000  0.0000  0.0000 </r>
        <r>  0.0122  0.0757  0.0122  0.0003  0.0000  0.0000  0.0000  0.0000  0.0000 </r>
        <r>  0.0004  0.0023  0.0004  0.0104  0.0000  0.0000  0.0000  0.0000  0.0000 </r>
       </set>
       <set comment="band 29">
        <r>  0.0016  0.0110  0.0017  0.0091  0.0000  0.0000  0.0000  0.0000  0.0000 </r>
        <r>  0.0098  0.0687  0.0105  0.0015  0.0000  0.0000  0.0000  0.0000  0.0000 </r>
        <r>  0.0014  0.0110  0.0016  0.0087  0.0000  0.0000  0.0000  0.0000  0.0000 </r>
        <r>  0.0090  0.0688  0.0101  0.0014  0.0000  0.0000  0.0000  0.0000  0.0000 </r>
        <r>  0.0000  0.0007  0.0029  0.0003  0.0000  0.0000  0.0000  0.0000  0.0000 </r>
        <r>  0.0000  0.0001  0.0005  0.0019  0.0000  0.0000  0.0000  0.0000  0.0000 </r>
        <r>  0.0000  0.0007  0.0029  0.0003  0.0000  0.0000  0.0000  0.0000  0.0000 </r>
        <r>  0.0000  0.0001  0.0005  0.0019  0.0000  0.0000  0.0000  0.0000  0.0000 </r>
        <r>  0.0014  0.0110  0.0016  0.0087  0.0000  0.0000  0.0000  0.0000  0.0000 </r>
        <r>  0.0090  0.0688  0.0101  0.0014  0.0000  0.0000  0.0000  0.0000  0.0000 </r>
        <r>  0.0016  0.0110  0.0017  0.0091  0.0000  0.0000  0.0000  0.0000  0.0000 </r>
        <r>  0.0098  0.0687  0.0105  0.0015  0.0000  0.0000  0.0000  0.0000  0.0000 </r>
       </set>
       <set comment="band 30">
        <r>  0.0098  0.0687  0.0105  0.0015  0.0000  0.0000  0.0000  0.0000  0.0000 </r>
        <r>  0.0016  0.0110  0.0017  0.0091  0.0000  0.0000  0.0000  0.0000  0.0000 </r>
        <r>  0.0090  0.0688  0.0101  0.0014  0.0000  0.0000  0.0000  0.0000  0.0000 </r>
        <r>  0.0014  0.0110  0.0016  0.0087  0.0000  0.0000  0.0000  0.0000  0.0000 </r>
        <r>  0.0000  0.0001  0.0005  0.0019  0.0000  0.0000  0.0000  0.0000  0.0000 </r>
        <r>  0.0000  0.0007  0.0029  0.0003  0.0000  0.0000  0.0000  0.0000  0.0000 </r>
        <r>  0.0000  0.0001  0.0005  0.0019  0.0000  0.0000  0.0000  0.0000  0.0000 </r>
        <r>  0.0000  0.0007  0.0029  0.0003  0.0000  0.0000  0.0000  0.0000  0.0000 </r>
        <r>  0.0090  0.0688  0.0101  0.0014  0.0000  0.0000  0.0000  0.0000  0.0000 </r>
        <r>  0.0014  0.0110  0.0016  0.0087  0.0000  0.0000  0.0000  0.0000  0.0000 </r>
        <r>  0.0098  0.0687  0.0105  0.0015  0.0000  0.0000  0.0000  0.0000  0.0000 </r>
        <r>  0.0016  0.0110  0.0017  0.0091  0.0000  0.0000  0.0000  0.0000  0.0000 </r>
       </set>
       <set comment="band 31">
        <r>  0.0110  0.0457  0.0033  0.0001  0.0000  0.0000  0.0000  0.0000  0.0000 </r>
        <r>  0.0002  0.0010  0.0001  0.0031  0.0000  0.0000  0.0000  0.0000  0.0000 </r>
        <r>  0.0103  0.0470  0.0014  0.0000  0.0000  0.0000  0.0000  0.0000  0.0000 </r>
        <r>  0.0002  0.0010  0.0000  0.0022  0.0000  0.0000  0.0000  0.0000  0.0000 </r>
        <r>  0.0001  0.0001  0.0000  0.0004  0.0000  0.0000  0.0000  0.0000  0.0000 </r>
        <r>  0.0064  0.0055  0.0009  0.0000  0.0000  0.0000  0.0000  0.0000  0.0000 </r>
        <r>  0.0001  0.0001  0.0000  0.0004  0.0000  0.0000  0.0000  0.0000  0.0000 </r>
        <r>  0.0064  0.0055  0.0009  0.0000  0.0000  0.0000  0.0000  0.0000  0.0000 </r>
        <r>  0.0103  0.0470  0.0014  0.0000  0.0000  0.0000  0.0000  0.0000  0.0000 </r>
        <r>  0.0002  0.0010  0.0000  0.0022  0.0000  0.0000  0.0000  0.0000  0.0000 </r>
        <r>  0.0110  0.0457  0.0033  0.0001  0.0000  0.0000  0.0000  0.0000  0.0000 </r>
        <r>  0.0002  0.0010  0.0001  0.0031  0.0000  0.0000  0.0000  0.0000  0.0000 </r>
       </set>
       <set comment="band 32">
        <r>  0.0002  0.0010  0.0001  0.0031  0.0000  0.0000  0.0000  0.0000  0.0000 </r>
        <r>  0.0110  0.0457  0.0033  0.0001  0.0000  0.0000  0.0000  0.0000  0.0000 </r>
        <r>  0.0002  0.0010  0.0000  0.0022  0.0000  0.0000  0.0000  0.0000  0.0000 </r>
        <r>  0.0103  0.0470  0.0014  0.0000  0.0000  0.0000  0.0000  0.0000  0.0000 </r>
        <r>  0.0064  0.0055  0.0009  0.0000  0.0000  0.0000  0.0000  0.0000  0.0000 </r>
        <r>  0.0001  0.0001  0.0000  0.0004  0.0000  0.0000  0.0000  0.0000  0.0000 </r>
        <r>  0.0064  0.0055  0.0009  0.0000  0.0000  0.0000  0.0000  0.0000  0.0000 </r>
        <r>  0.0001  0.0001  0.0000  0.0004  0.0000  0.0000  0.0000  0.0000  0.0000 </r>
        <r>  0.0002  0.0010  0.0000  0.0022  0.0000  0.0000  0.0000  0.0000  0.0000 </r>
        <r>  0.0103  0.0470  0.0014  0.0000  0.0000  0.0000  0.0000  0.0000  0.0000 </r>
        <r>  0.0002  0.0010  0.0001  0.0031  0.0000  0.0000  0.0000  0.0000  0.0000 </r>
        <r>  0.0110  0.0457  0.0033  0.0001  0.0000  0.0000  0.0000  0.0000  0.0000 </r>
       </set>
       <set comment="band 33">
        <r>  0.0004  0.0138  0.0004  0.0000  0.0000  0.0000  0.0000  0.0000  0.0000 </r>
        <r>  0.0000  0.0003  0.0000  0.0002  0.0000  0.0000  0.0000  0.0000  0.0000 </r>
        <r>  0.0086  0.0001  0.0039  0.0000  0.0000  0.0000  0.0000  0.0000  0.0000 </r>
        <r>  0.0002  0.0000  0.0001  0.0017  0.0000  0.0000  0.0000  0.0000  0.0000 </r>
        <r>  0.0005  0.0021  0.0001  0.0058  0.0000  0.0000  0.0000  0.0000  0.0000 </r>
        <r>  0.0216  0.0948  0.0051  0.0001  0.0000  0.0000  0.0000  0.0000  0.0000 </r>
        <r>  0.0005  0.0021  0.0001  0.0058  0.0000  0.0000  0.0000  0.0000  0.0000 </r>
        <r>  0.0216  0.0948  0.0051  0.0001  0.0000  0.0000  0.0000  0.0000  0.0000 </r>
        <r>  0.0086  0.0001  0.0039  0.0000  0.0000  0.0000  0.0000  0.0000  0.0000 </r>
        <r>  0.0002  0.0000  0.0001  0.0017  0.0000  0.0000  0.0000  0.0000  0.0000 </r>
        <r>  0.0004  0.0138  0.0004  0.0000  0.0000  0.0000  0.0000  0.0000  0.0000 </r>
        <r>  0.0000  0.0003  0.0000  0.0002  0.0000  0.0000  0.0000  0.0000  0.0000 </r>
       </set>
       <set comment="band 34">
        <r>  0.0000  0.0003  0.0000  0.0002  0.0000  0.0000  0.0000  0.0000  0.0000 </r>
        <r>  0.0004  0.0138  0.0004  0.0000  0.0000  0.0000  0.0000  0.0000  0.0000 </r>
        <r>  0.0002  0.0000  0.0001  0.0017  0.0000  0.0000  0.0000  0.0000  0.0000 </r>
        <r>  0.0086  0.0001  0.0039  0.0000  0.0000  0.0000  0.0000  0.0000  0.0000 </r>
        <r>  0.0216  0.0948  0.0051  0.0001  0.0000  0.0000  0.0000  0.0000  0.0000 </r>
        <r>  0.0005  0.0021  0.0001  0.0058  0.0000  0.0000  0.0000  0.0000  0.0000 </r>
        <r>  0.0216  0.0948  0.0051  0.0001  0.0000  0.0000  0.0000  0.0000  0.0000 </r>
        <r>  0.0005  0.0021  0.0001  0.0058  0.0000  0.0000  0.0000  0.0000  0.0000 </r>
        <r>  0.0002  0.0000  0.0001  0.0017  0.0000  0.0000  0.0000  0.0000  0.0000 </r>
        <r>  0.0086  0.0001  0.0039  0.0000  0.0000  0.0000  0.0000  0.0000  0.0000 </r>
        <r>  0.0000  0.0003  0.0000  0.0002  0.0000  0.0000  0.0000  0.0000  0.0000 </r>
        <r>  0.0004  0.0138  0.0004  0.0000  0.0000  0.0000  0.0000  0.0000  0.0000 </r>
       </set>
       <set comment="band 35">
        <r>  0.0041  0.0177  0.0007  0.0018  0.0000  0.0000  0.0000  0.0000  0.0000 </r>
        <r>  0.0085  0.0370  0.0015  0.0009  0.0000  0.0000  0.0000  0.0000  0.0000 </r>
        <r>  0.0042  0.0174  0.0015  0.0027  0.0000  0.0000  0.0000  0.0000  0.0000 </r>
        <r>  0.0089  0.0364  0.0032  0.0013  0.0000  0.0000  0.0000  0.0000  0.0000 </r>
        <r>  0.0018  0.0050  0.0025  0.0005  0.0000  0.0000  0.0000  0.0000  0.0000 </r>
        <r>  0.0009  0.0024  0.0012  0.0010  0.0000  0.0000  0.0000  0.0000  0.0000 </r>
        <r>  0.0018  0.0050  0.0025  0.0005  0.0000  0.0000  0.0000  0.0000  0.0000 </r>
        <r>  0.0009  0.0024  0.0012  0.0010  0.0000  0.0000  0.0000  0.0000  0.0000 </r>
        <r>  0.0042  0.0174  0.0015  0.0027  0.0000  0.0000  0.0000  0.0000  0.0000 </r>
        <r>  0.0089  0.0364  0.0032  0.0013  0.0000  0.0000  0.0000  0.0000  0.0000 </r>
        <r>  0.0041  0.0177  0.0007  0.0018  0.0000  0.0000  0.0000  0.0000  0.0000 </r>
        <r>  0.0085  0.0370  0.0015  0.0009  0.0000  0.0000  0.0000  0.0000  0.0000 </r>
       </set>
       <set comment="band 36">
        <r>  0.0085  0.0370  0.0015  0.0009  0.0000  0.0000  0.0000  0.0000  0.0000 </r>
        <r>  0.0041  0.0177  0.0007  0.0018  0.0000  0.0000  0.0000  0.0000  0.0000 </r>
        <r>  0.0089  0.0364  0.0032  0.0013  0.0000  0.0000  0.0000  0.0000  0.0000 </r>
        <r>  0.0042  0.0174  0.0015  0.0027  0.0000  0.0000  0.0000  0.0000  0.0000 </r>
        <r>  0.0009  0.0024  0.0012  0.0010  0.0000  0.0000  0.0000  0.0000  0.0000 </r>
        <r>  0.0018  0.0050  0.0025  0.0005  0.0000  0.0000  0.0000  0.0000  0.0000 </r>
        <r>  0.0009  0.0024  0.0012  0.0010  0.0000  0.0000  0.0000  0.0000  0.0000 </r>
        <r>  0.0018  0.0050  0.0025  0.0005  0.0000  0.0000  0.0000  0.0000  0.0000 </r>
        <r>  0.0089  0.0364  0.0032  0.0013  0.0000  0.0000  0.0000  0.0000  0.0000 </r>
        <r>  0.0042  0.0174  0.0015  0.0027  0.0000  0.0000  0.0000  0.0000  0.0000 </r>
        <r>  0.0085  0.0370  0.0015  0.0009  0.0000  0.0000  0.0000  0.0000  0.0000 </r>
        <r>  0.0041  0.0177  0.0007  0.0018  0.0000  0.0000  0.0000  0.0000  0.0000 </r>
       </set>
       <set comment="band 37">
        <r>  0.0000  0.0000  0.0003  0.0002  0.0000  0.0000  0.0000  0.0000  0.0000 </r>
        <r>  0.0000  0.0001  0.0003  0.0001  0.0000  0.0000  0.0000  0.0000  0.0000 </r>
        <r>  0.0000  0.0001  0.0004  0.0002  0.0000  0.0000  0.0000  0.0000  0.0000 </r>
        <r>  0.0000  0.0002  0.0005  0.0001  0.0000  0.0000  0.0000  0.0000  0.0000 </r>
        <r>  0.0040  0.0021  0.0943  0.0247  0.0000  0.0000  0.0000  0.0000  0.0000 </r>
        <r>  0.0023  0.0012  0.0551  0.0423  0.0000  0.0000  0.0000  0.0000  0.0000 </r>
        <r>  0.0040  0.0021  0.0944  0.0247  0.0000  0.0000  0.0000  0.0000  0.0000 </r>
        <r>  0.0023  0.0012  0.0550  0.0423  0.0000  0.0000  0.0000  0.0000  0.0000 </r>
        <r>  0.0000  0.0001  0.0006  0.0000  0.0000  0.0000  0.0000  0.0000  0.0000 </r>
        <r>  0.0000  0.0002  0.0002  0.0002  0.0000  0.0000  0.0000  0.0000  0.0000 </r>
        <r>  0.0000  0.0000  0.0004  0.0000  0.0000  0.0000  0.0000  0.0000  0.0000 </r>
        <r>  0.0000  0.0001  0.0000  0.0002  0.0000  0.0000  0.0000  0.0000  0.0000 </r>
       </set>
       <set comment="band 38">
        <r>  0.0001  0.0001  0.0024  0.0083  0.0000  0.0000  0.0000  0.0000  0.0000 </r>
        <r>  0.0008  0.0005  0.0174  0.0011  0.0000  0.0000  0.0000  0.0000  0.0000 </r>
        <r>  0.0001  0.0001  0.0029  0.0086  0.0000  0.0000  0.0000  0.0000  0.0000 </r>
        <r>  0.0007  0.0006  0.0200  0.0012  0.0000  0.0000  0.0000  0.0000  0.0000 </r>
        <r>  0.0014  0.0007  0.0347  0.0261  0.0000  0.0000  0.0000  0.0000  0.0000 </r>
        <r>  0.0024  0.0013  0.0576  0.0154  0.0000  0.0000  0.0000  0.0000  0.0000 </r>
        <r>  0.0014  0.0007  0.0348  0.0261  0.0000  0.0000  0.0000  0.0000  0.0000 </r>
        <r>  0.0025  0.0012  0.0587  0.0154  0.0000  0.0000  0.0000  0.0000  0.0000 </r>
        <r>  0.0001  0.0003  0.0010  0.0163  0.0000  0.0000  0.0000  0.0000  0.0000 </r>
        <r>  0.0015  0.0010  0.0374  0.0007  0.0000  0.0000  0.0000  0.0000  0.0000 </r>
        <r>  0.0001  0.0002  0.0014  0.0156  0.0000  0.0000  0.0000  0.0000  0.0000 </r>
        <r>  0.0015  0.0009  0.0332  0.0006  0.0000  0.0000  0.0000  0.0000  0.0000 </r>
       </set>
       <set comment="band 39">
        <r>  0.0011  0.0009  0.0238  0.0213  0.0000  0.0000  0.0000  0.0000  0.0000 </r>
        <r>  0.0022  0.0017  0.0467  0.0108  0.0000  0.0000  0.0000  0.0000  0.0000 </r>
        <r>  0.0013  0.0007  0.0252  0.0227  0.0000  0.0000  0.0000  0.0000  0.0000 </r>
        <r>  0.0025  0.0014  0.0494  0.0116  0.0000  0.0000  0.0000  0.0000  0.0000 </r>
        <r>  0.0000  0.0000  0.0001  0.0000  0.0000  0.0000  0.0000  0.0000  0.0000 </r>
        <r>  0.0000  0.0000  0.0001  0.0000  0.0000  0.0000  0.0000  0.0000  0.0000 </r>
        <r>  0.0000  0.0000  0.0001  0.0000  0.0000  0.0000  0.0000  0.0000  0.0000 </r>
        <r>  0.0000  0.0000  0.0000  0.0000  0.0000  0.0000  0.0000  0.0000  0.0000 </r>
        <r>  0.0013  0.0007  0.0246  0.0240  0.0000  0.0000  0.0000  0.0000  0.0000 </r>
        <r>  0.0027  0.0015  0.0525  0.0113  0.0000  0.0000  0.0000  0.0000  0.0000 </r>
        <r>  0.0011  0.0008  0.0233  0.0225  0.0000  0.0000  0.0000  0.0000  0.0000 </r>
        <r>  0.0024  0.0018  0.0495  0.0106  0.0000  0.0000  0.0000  0.0000  0.0000 </r>
       </set>
       <set comment="band 40">
        <r>  0.0033  0.0018  0.0738  0.0003  0.0000  0.0000  0.0000  0.0000  0.0000 </r>
        <r>  0.0000  0.0000  0.0006  0.0350  0.0000  0.0000  0.0000  0.0000  0.0000 </r>
        <r>  0.0033  0.0018  0.0850  0.0003  0.0000  0.0000  0.0000  0.0000  0.0000 </r>
        <r>  0.0000  0.0000  0.0006  0.0365  0.0000  0.0000  0.0000  0.0000  0.0000 </r>
        <r>  0.0000  0.0000  0.0000  0.0001  0.0000  0.0000  0.0000  0.0000  0.0000 </r>
        <r>  0.0000  0.0004  0.0003  0.0000  0.0000  0.0000  0.0000  0.0000  0.0000 </r>
        <r>  0.0000  0.0000  0.0000  0.0001  0.0000  0.0000  0.0000  0.0000  0.0000 </r>
        <r>  0.0000  0.0004  0.0002  0.0000  0.0000  0.0000  0.0000  0.0000  0.0000 </r>
        <r>  0.0028  0.0015  0.0743  0.0006  0.0000  0.0000  0.0000  0.0000  0.0000 </r>
        <r>  0.0001  0.0000  0.0014  0.0318  0.0000  0.0000  0.0000  0.0000  0.0000 </r>
        <r>  0.0029  0.0015  0.0642  0.0006  0.0000  0.0000  0.0000  0.0000  0.0000 </r>
        <r>  0.0001  0.0000  0.0013  0.0305  0.0000  0.0000  0.0000  0.0000  0.0000 </r>
       </set>
      </set>
     </set>
    </set>
   </array>
  </projected>
 </calculation>
 <structure name="finalpos" >
  <crystal>
   <varray name="basis" >
    <v>       3.34288600       0.00000000       0.00000000 </v>
    <v>       0.00000000      32.60240900       0.00000000 </v>
    <v>       0.00000000       0.00000000       4.37483100 </v>
   </varray>
   <i name="volume">    476.79592902 </i>
   <varray name="rec_basis" >
    <v>       0.29914272       0.00000000       0.00000000 </v>
    <v>       0.00000000       0.03067258       0.00000000 </v>
    <v>       0.00000000       0.00000000       0.22858026 </v>
   </varray>
  </crystal>
  <varray name="positions" >
   <v>       0.00000000       0.30672600       0.91892400 </v>
   <v>       0.50000000       0.30672600       0.58107600 </v>
   <v>       0.00000000       0.37246700       0.08107600 </v>
   <v>       0.50000000       0.37246700       0.41892400 </v>
   <v>       0.50000000       0.46712900       0.91892400 </v>
   <v>       0.00000000       0.46712900       0.58107600 </v>
   <v>       0.50000000       0.53287100       0.08107600 </v>
   <v>       0.00000000       0.53287100       0.41892400 </v>
   <v>       0.00000000       0.62753300       0.91892400 </v>
   <v>       0.50000000       0.62753300       0.58107600 </v>
   <v>       0.00000000       0.69327400       0.08107600 </v>
   <v>       0.50000000       0.69327400       0.41892400 </v>
  </varray>
 </structure>
</modeling>
