 vasp.5.4.4.18Apr17-6-g9f103f2a35 (build Jun 20 2017 18:00:50) complex          
  
 executed on             LinuxIFC date 2018.03.16  16:01:32
 running on   32 total cores
 distrk:  each k-point on   32 cores,    1 groups
 distr:  one band on NCORES_PER_BAND=   8 cores,    4 groups


--------------------------------------------------------------------------------------------------------


 INCAR:
 POTCAR:    PAW_PBE P 06Sep2000                   
 POTCAR:    PAW_PBE P 06Sep2000                   
   VRHFIN =P : s2p3                                                             
   LEXCH  = PE                                                                  
   EATOM  =   176.0430 eV,   12.9388 Ry                                         
                                                                                
   TITEL  = PAW_PBE P 06Sep2000                                                 
   LULTRA =        F    use ultrasoft PP ?                                      
   IUNSCR =        1    unscreen: 0-lin 1-nonlin 2-no                           
   RPACOR =    1.500    partial core radius                                     
   POMASS =   30.974; ZVAL   =    5.000    mass and valenz                      
   RCORE  =    1.900    outmost cutoff radius                                   
   RWIGS  =    2.330; RWIGS  =    1.233    wigner-seitz radius (au A)           
   ENMAX  =  255.040; ENMIN  =  191.280 eV                                      
   ICORE  =        2    local potential                                         
   LCOR   =        T    correct aug charges                                     
   LPAW   =        T    paw PP                                                  
   EAUG   =  342.924                                                            
   DEXC   =    0.000                                                            
   RMAX   =    1.935    core radius for proj-oper                               
   RAUG   =    1.300    factor for augmentation sphere                          
   RDEP   =    1.931    radius for radial grids                                 
   RDEPT  =    1.794    core radius for aug-charge                              
                                                                                
   Atomic configuration                                                         
    6 entries                                                                   
     n  l   j            E        occ.                                          
     1  0  0.50     -2084.0982   2.0000                                         
     2  0  0.50      -173.9859   2.0000                                         
     2  1  1.50      -124.4865   6.0000                                         
     3  0  0.50       -13.9692   2.0000                                         
     3  1  0.50        -5.5067   3.0000                                         
     3  2  1.50        -5.4423   0.0000                                         
   Description                                                                  
     l       E           TYP  RCUT    TYP  RCUT                                 
     0    -13.9691527     23  1.900                                             
     0    -11.7794650     23  1.900                                             
     1     -5.5066937     23  1.900                                             
     1     -0.2556953     23  1.900                                             
     2     -5.4423304     23  1.900                                             
  local pseudopotential read in
  partial core-charges read in
  partial kinetic energy density read in
  atomic valenz-charges read in
  non local Contribution for L=           0  read in
    real space projection operators read in
  non local Contribution for L=           0  read in
    real space projection operators read in
  non local Contribution for L=           1  read in
    real space projection operators read in
  non local Contribution for L=           1  read in
    real space projection operators read in
    PAW grid and wavefunctions read in
 
   number of l-projection  operators is LMAX  =           4
   number of lm-projection operators is LMMAX =           8
 
  PAW_PBE P 06Sep2000                   :
 energy of atom  1       EATOM= -176.0430
 kinetic energy error for atom=    0.0040 (will be added to EATOM!!)
 
 
 POSCAR: P12                                     
  positions in direct lattice
  No initial velocities read in
 exchange correlation table for  LEXCH =        8
   RHO(1)=    0.500       N(1)  =     2000
   RHO(2)=  100.500       N(2)  =     4000
 


--------------------------------------------------------------------------------------------------------


 ion  position               nearest neighbor table
   1  0.000  0.307  0.919-   2 2.23   2 2.23   3 2.26
   2  0.500  0.307  0.581-   1 2.23   1 2.23   4 2.26
   3  0.000  0.372  0.081-   4 2.23   4 2.23   1 2.26
   4  0.500  0.372  0.419-   3 2.23   3 2.23   2 2.26
   5  0.500  0.467  0.919-   6 2.23   6 2.23   7 2.26
   6  0.000  0.467  0.581-   5 2.23   5 2.23   8 2.26
   7  0.500  0.533  0.081-   8 2.23   8 2.23   5 2.26
   8  0.000  0.533  0.419-   7 2.23   7 2.23   6 2.26
   9  0.000  0.628  0.919-  10 2.23  10 2.23  11 2.26
  10  0.500  0.628  0.581-   9 2.23   9 2.23  12 2.26
  11  0.000  0.693  0.081-  12 2.23  12 2.23   9 2.26
  12  0.500  0.693  0.419-  11 2.23  11 2.23  10 2.26
 
  LATTYP: Found a simple orthorhombic cell.
 ALAT       =     3.3428860000
 B/A-ratio  =     1.3086988309
 C/A-ratio  =     9.7527732026
  
  Lattice vectors:
  
 A1 = (  -3.3428860000,   0.0000000000,   0.0000000000)
 A2 = (   0.0000000000,   0.0000000000,  -4.3748310000)
 A3 = (   0.0000000000, -32.6024090000,   0.0000000000)


Analysis of symmetry for initial positions (statically):
=====================================================================
 Subroutine PRICEL returns:
 Original cell was already a primitive cell.
 

 Routine SETGRP: Setting up the symmetry group for a 
 simple orthorhombic supercell.


 Subroutine GETGRP returns: Found  8 space group operations
 (whereof  4 operations were pure point group operations)
 out of a pool of  8 trial point group operations.


The static configuration has the point symmetry C_2h.
 The point group associated with its full space group is D_2h.


Analysis of symmetry for dynamics (positions and initial velocities):
=====================================================================
 Subroutine PRICEL returns:
 Original cell was already a primitive cell.
 

 Routine SETGRP: Setting up the symmetry group for a 
 simple orthorhombic supercell.


 Subroutine GETGRP returns: Found  8 space group operations
 (whereof  4 operations were pure point group operations)
 out of a pool of  8 trial point group operations.


The dynamic configuration has the point symmetry C_2h.
 The point group associated with its full space group is D_2h.


 Subroutine INISYM returns: Found  8 space group operations
 (whereof  4 operations are pure point group operations),
 and found     1 'primitive' translations

 
 
 KPOINTS: Automatic mesh                          

Automatic generation of k-mesh.
Space group operators:
 irot       det(A)        alpha          n_x          n_y          n_z        tau_x        tau_y        tau_z
    1     1.000000     0.000001     1.000000     0.000000     0.000000     0.000000     0.000000     0.000000
    2    -1.000000     0.000001     1.000000     0.000000     0.000000     0.000000     0.000000     0.000000
    3     1.000000   179.999999     1.000000     0.000000     0.000000     0.000000     0.000000     0.000000
    4    -1.000000   179.999999     1.000000     0.000000     0.000000     0.000000     0.000000     0.000000
    5     1.000000   179.999999     0.000000     1.000000     0.000000    -0.500000     0.000000    -0.500000
    6    -1.000000   179.999999     0.000000     1.000000     0.000000    -0.500000     0.000000    -0.500000
    7     1.000000   179.999999     0.000000     0.000000     1.000000    -0.500000     0.000000    -0.500000
    8    -1.000000   179.999999     0.000000     0.000000     1.000000    -0.500000     0.000000    -0.500000
 
 Subroutine IBZKPT returns following result:
 ===========================================
 
 Found     12 irreducible k-points:
 
 Following reciprocal coordinates:
            Coordinates               Weight
  0.000000  0.000000  0.000000      1.000000
  0.166667  0.000000  0.000000      2.000000
  0.333333  0.000000  0.000000      2.000000
  0.500000  0.000000  0.000000      1.000000
  0.000000  0.000000  0.250000      2.000000
  0.166667  0.000000  0.250000      4.000000
  0.333333  0.000000  0.250000      4.000000
  0.500000  0.000000  0.250000      2.000000
  0.000000  0.000000  0.500000      1.000000
  0.166667  0.000000  0.500000      2.000000
  0.333333  0.000000  0.500000      2.000000
  0.500000  0.000000  0.500000      1.000000
 
 Following cartesian coordinates:
            Coordinates               Weight
  0.000000  0.000000  0.000000      1.000000
  0.049857  0.000000  0.000000      2.000000
  0.099714  0.000000  0.000000      2.000000
  0.149571  0.000000  0.000000      1.000000
  0.000000  0.000000  0.057145      2.000000
  0.049857  0.000000  0.057145      4.000000
  0.099714  0.000000  0.057145      4.000000
  0.149571  0.000000  0.057145      2.000000
  0.000000  0.000000  0.114290      1.000000
  0.049857  0.000000  0.114290      2.000000
  0.099714  0.000000  0.114290      2.000000
  0.149571  0.000000  0.114290      1.000000
 


--------------------------------------------------------------------------------------------------------




 Dimension of arrays:
   k-points           NKPTS =     12   k-points in BZ     NKDIM =     12   number of bands    NBANDS=     40
   number of dos      NEDOS =   2000   number of ions     NIONS =     12
   non local maximal  LDIM  =      4   non local SUM 2l+1 LMDIM =      8
   total plane-waves  NPLWV =  39200
   max r-space proj   IRMAX =      1   max aug-charges    IRDMAX=   2701
   dimension x,y,z NGX =    14 NGY =  140 NGZ =   20
   dimension x,y,z NGXF=    28 NGYF=  280 NGZF=   40
   support grid    NGXF=    28 NGYF=  280 NGZF=   40
   ions per type =              12
   NGX,Y,Z   is equivalent  to a cutoff of   6.96,  7.14,  7.60 a.u.
   NGXF,Y,Z  is equivalent  to a cutoff of  13.92, 14.28, 15.20 a.u.

 SYSTEM =  Generic Input                           
 POSCAR =  P12                                     

 Startparameter for this run:
   NWRITE =      2    write-flag & timer
   PREC   = normal    normal or accurate (medium, high low for compatibility)
   ISTART =      0    job   : 0-new  1-cont  2-samecut
   ICHARG =      2    charge: 1-file 2-atom 10-const
   ISPIN  =      1    spin polarized calculation?
   LNONCOLLINEAR =      F non collinear calculations
   LSORBIT =      F    spin-orbit coupling
   INIWAV =      1    electr: 0-lowe 1-rand  2-diag
   LASPH  =      T    aspherical Exc in radial PAW
   METAGGA=      F    non-selfconsistent MetaGGA calc.

 Electronic Relaxation 1
   ENCUT  =  300.0 eV  22.05 Ry    4.70 a.u.   4.72 46.04  6.18*2*pi/ulx,y,z
   ENINI  =  300.0     initial cutoff
   ENAUG  =  342.9 eV  augmentation charge cutoff
   NELM   =    200;   NELMIN=  2; NELMDL=  0     # of ELM steps 
   EDIFF  = 0.1E-04   stopping-criterion for ELM
   LREAL  =      F    real-space projection
   NLSPLINE    = F    spline interpolate recip. space projectors
   LCOMPAT=      F    compatible to vasp.4.4
   GGA_COMPAT  = T    GGA compatible to vasp.4.4-vasp.4.6
   LMAXPAW     = -100 max onsite density
   LMAXMIX     =    2 max onsite mixed and CHGCAR
   VOSKOWN=      0    Vosko Wilk Nusair interpolation
   ROPT   =    0.00000
 Ionic relaxation
   EDIFFG = -.2E-01   stopping-criterion for IOM
   NSW    =      0    number of steps for IOM
   NBLOCK =      1;   KBLOCK =      1    inner block; outer block 
   IBRION =     -1    ionic relax: 0-MD 1-quasi-New 2-CG
   NFREE  =      1    steps in history (QN), initial steepest desc. (CG)
   ISIF   =      3    stress and relaxation
   IWAVPR =     11    prediction:  0-non 1-charg 2-wave 3-comb
   ISYM   =      2    0-nonsym 1-usesym 2-fastsym
   LCORR  =      T    Harris-Foulkes like correction to forces

   POTIM  = 0.5000    time-step for ionic-motion
   TEIN   =    0.0    initial temperature
   TEBEG  =    0.0;   TEEND  =   0.0 temperature during run
   SMASS  =  -3.00    Nose mass-parameter (am)
   estimated Nose-frequenzy (Omega)   =  0.10E-29 period in steps =****** mass=  -0.255E-27a.u.
   SCALEE = 1.0000    scale energy and forces
   NPACO  =    256;   APACO  = 16.0  distance and # of slots for P.C.
   PSTRESS=    0.0 pullay stress

  Mass of Ions in am
   POMASS =  30.97
  Ionic Valenz
   ZVAL   =   5.00
  Atomic Wigner-Seitz radii
   RWIGS  =  -1.00
  virtual crystal weights 
   VCA    =   1.00
   NELECT =      60.0000    total number of electrons
   NUPDOWN=      -1.0000    fix difference up-down

 DOS related values:
   EMIN   =  10.00;   EMAX   =-10.00  energy-range for DOS
   EFERMI =   0.00
   ISMEAR =     0;   SIGMA  =   0.01  broadening in eV -4-tet -1-fermi 0-gaus

 Electronic relaxation 2 (details)
   IALGO  =     38    algorithm
   LDIAG  =      T    sub-space diagonalisation (order eigenvalues)
   LSUBROT=      F    optimize rotation matrix (better conditioning)
   TURBO    =      0    0=normal 1=particle mesh
   IRESTART =      0    0=no restart 2=restart with 2 vectors
   NREBOOT  =      0    no. of reboots
   NMIN     =      0    reboot dimension
   EREF     =   0.00    reference energy to select bands
   IMIX   =      4    mixing-type and parameters
     AMIX     =   0.40;   BMIX     =  1.00
     AMIX_MAG =   1.60;   BMIX_MAG =  1.00
     AMIN     =   0.10
     WC   =   100.;   INIMIX=   1;  MIXPRE=   1;  MAXMIX= -45

 Intra band minimization:
   WEIMIN = 0.0000     energy-eigenvalue tresh-hold
   EBREAK =  0.63E-07  absolut break condition
   DEPER  =   0.30     relativ break condition  

   TIME   =   0.40     timestep for ELM

  volume/ion in A,a.u.               =      39.73       268.13
  Fermi-wavevector in a.u.,A,eV,Ry     =   0.820379  1.550291  9.157011  0.673021
  Thomas-Fermi vector in A             =   1.931350
 
 Write flags
   LWAVE        =      T    write WAVECAR
   LDOWNSAMPLE  =      F    k-point downsampling of WAVECAR
   LCHARG       =      T    write CHGCAR
   LVTOT        =      F    write LOCPOT, total local potential
   LVHAR        =      T    write LOCPOT, Hartree potential only
   LELF         =      F    write electronic localiz. function (ELF)
   LORBIT       =     11    0 simple, 1 ext, 2 COOP (PROOUT), +10 PAW based schemes


 Dipole corrections
   LMONO  =      F    monopole corrections only (constant potential shift)
   LDIPOL =      F    correct potential (dipole corrections)
   IDIPOL =      0    1-x, 2-y, 3-z, 4-all directions 
   EPSILON=  1.0000000 bulk dielectric constant

 Core level calculations are selected ICORELEVEL =  1
 Exchange correlation treatment:
   GGA     =    PE    GGA type
   LEXCH   =     8    internal setting for exchange type
   VOSKOWN=      0    Vosko Wilk Nusair interpolation
   LHFCALC =     F    Hartree Fock is set to
   LHFONE  =     F    Hartree Fock one center treatment
   AEXX    =    0.0000 exact exchange contribution

 Linear response parameters
   LEPSILON=     F    determine dielectric tensor
   LRPA    =     F    only Hartree local field effects (RPA)
   LNABLA  =     F    use nabla operator in PAW spheres
   LVEL    =     F    velocity operator in full k-point grid
   LINTERFAST=   F  fast interpolation
   KINTER  =     0    interpolate to denser k-point grid
   CSHIFT  =0.1000    complex shift for real part using Kramers Kronig
   OMEGAMAX=  -1.0    maximum frequency
   DEG_THRESHOLD= 0.2000000E-02 threshold for treating states as degnerate
   RTIME   =   -0.100 relaxation time in fs
  (WPLASMAI=    0.000 imaginary part of plasma frequency in eV, 0.658/RTIME)
   DFIELD  = 0.0000000 0.0000000 0.0000000 field for delta impulse in time
 
 Orbital magnetization related:
   ORBITALMAG=     F  switch on orbital magnetization
   LCHIMAG   =     F  perturbation theory with respect to B field
   DQ        =  0.001000  dq finite difference perturbation B field
   LLRAUG    =     F  two centre corrections for induced B field



--------------------------------------------------------------------------------------------------------


 Static calculation
 charge density and potential will be updated during run
 non-spin polarized calculation
 Variant of blocked Davidson
 Davidson routine will perform the subspace rotation
 perform sub-space diagonalisation
    after iterative eigenvector-optimisation
 modified Broyden-mixing scheme, WC =      100.0
 initial mixing is a Kerker type mixing with AMIX =  0.4000 and BMIX =      1.0000
 Hartree-type preconditioning will be used
 using additional bands           10
 reciprocal scheme for non local part
 use partial core corrections
 calculate Harris-corrections to forces 
   (improved forces if not selfconsistent)
 use gradient corrections 
 use of overlap-Matrix (Vanderbilt PP)
 Gauss-broadening in eV      SIGMA  =   0.01


--------------------------------------------------------------------------------------------------------


  energy-cutoff  :      300.00
  volume of cell :      476.80
      direct lattice vectors                 reciprocal lattice vectors
     3.342886000  0.000000000  0.000000000     0.299142717  0.000000000  0.000000000
     0.000000000 32.602409000  0.000000000     0.000000000  0.030672580  0.000000000
     0.000000000  0.000000000  4.374831000     0.000000000  0.000000000  0.228580258

  length of vectors
     3.342886000 32.602409000  4.374831000     0.299142717  0.030672580  0.228580258


 
 k-points in units of 2pi/SCALE and weight: Automatic mesh                          
   0.00000000  0.00000000  0.00000000       0.042
   0.04985712  0.00000000  0.00000000       0.083
   0.09971424  0.00000000  0.00000000       0.083
   0.14957136  0.00000000  0.00000000       0.042
   0.00000000  0.00000000  0.05714506       0.083
   0.04985712  0.00000000  0.05714506       0.167
   0.09971424  0.00000000  0.05714506       0.167
   0.14957136  0.00000000  0.05714506       0.083
   0.00000000  0.00000000  0.11429013       0.042
   0.04985712  0.00000000  0.11429013       0.083
   0.09971424  0.00000000  0.11429013       0.083
   0.14957136  0.00000000  0.11429013       0.042
 
 k-points in reciprocal lattice and weights: Automatic mesh                          
   0.00000000  0.00000000  0.00000000       0.042
   0.16666667  0.00000000  0.00000000       0.083
   0.33333333  0.00000000  0.00000000       0.083
   0.50000000  0.00000000  0.00000000       0.042
   0.00000000  0.00000000  0.25000000       0.083
   0.16666667  0.00000000  0.25000000       0.167
   0.33333333  0.00000000  0.25000000       0.167
   0.50000000  0.00000000  0.25000000       0.083
   0.00000000  0.00000000  0.50000000       0.042
   0.16666667  0.00000000  0.50000000       0.083
   0.33333333  0.00000000  0.50000000       0.083
   0.50000000  0.00000000  0.50000000       0.042
 
 position of ions in fractional coordinates (direct lattice) 
   0.00000000  0.30672600  0.91892400
   0.50000000  0.30672600  0.58107600
   0.00000000  0.37246700  0.08107600
   0.50000000  0.37246700  0.41892400
   0.50000000  0.46712900  0.91892400
   0.00000000  0.46712900  0.58107600
   0.50000000  0.53287100  0.08107600
   0.00000000  0.53287100  0.41892400
   0.00000000  0.62753300  0.91892400
   0.50000000  0.62753300  0.58107600
   0.00000000  0.69327400  0.08107600
   0.50000000  0.69327400  0.41892400
 
 position of ions in cartesian coordinates  (Angst):
   0.00000000 10.00000650  4.02013720
   1.67144300 10.00000650  2.54210930
   0.00000000 12.14332147  0.35469380
   1.67144300 12.14332147  1.83272170
   1.67144300 15.22953071  4.02013720
   0.00000000 15.22953071  2.54210930
   1.67144300 17.37287829  0.35469380
   0.00000000 17.37287829  1.83272170
   0.00000000 20.45908753  4.02013720
   1.67144300 20.45908753  2.54210930
   0.00000000 22.60240250  0.35469380
   1.67144300 22.60240250  1.83272170
 


--------------------------------------------------------------------------------------------------------


 k-point  1 :   0.0000 0.0000 0.0000  plane waves:    5657
 k-point  2 :   0.1667 0.0000 0.0000  plane waves:    5601
 k-point  3 :   0.3333 0.0000 0.0000  plane waves:    5610
 k-point  4 :   0.5000 0.0000 0.0000  plane waves:    5638
 k-point  5 :   0.0000 0.0000 0.2500  plane waves:    5640
 k-point  6 :   0.1667 0.0000 0.2500  plane waves:    5622
 k-point  7 :   0.3333 0.0000 0.2500  plane waves:    5619
 k-point  8 :   0.5000 0.0000 0.2500  plane waves:    5616
 k-point  9 :   0.0000 0.0000 0.5000  plane waves:    5648
 k-point 10 :   0.1667 0.0000 0.5000  plane waves:    5648
 k-point 11 :   0.3333 0.0000 0.5000  plane waves:    5602
 k-point 12 :   0.5000 0.0000 0.5000  plane waves:    5660

 maximum and minimum number of plane-waves per node :       725      680

 maximum number of plane-waves:      5660
 maximum index in each direction: 
   IXMAX=    4   IYMAX=   46   IZMAX=    6
   IXMIN=   -5   IYMIN=  -46   IZMIN=   -6


 parallel 3D FFT for wavefunctions:
    minimum data exchange during FFTs selected (reduces bandwidth)
 parallel 3D FFT for charge:
    minimum data exchange during FFTs selected (reduces bandwidth)


 total amount of memory used by VASP MPI-rank0    33453. kBytes
=======================================================================

   base      :      30000. kBytes
   nonl-proj :        687. kBytes
   fftplans  :        571. kBytes
   grid      :        784. kBytes
   one-center:          6. kBytes
   wavefun   :       1405. kBytes
 
     INWAV:  cpu time    0.0001: real time    0.0001
 Broyden mixing: mesh for mixing (old mesh)
   NGX =  9   NGY = 93   NGZ = 13
  (NGX  = 28   NGY  =280   NGZ  = 40)
  gives a total of  10881 points

 initial charge density was supplied:
 charge density of overlapping atoms calculated
 number of electron      60.0000000 magnetization 
 keeping initial charge density in first step


--------------------------------------------------------------------------------------------------------


 Maximum index for augmentation-charges          228 (set IRDMAX)


--------------------------------------------------------------------------------------------------------


 First call to EWALD:  gamma=   0.227
 Maximum number of real-space cells 6x 1x 5
 Maximum number of reciprocal cells 1x10x 2

    FEWALD:  cpu time    0.0017: real time    0.0017


--------------------------------------- Iteration      1(   1)  ---------------------------------------


    POTLOK:  cpu time    0.0196: real time    0.0396
    SETDIJ:  cpu time    0.0654: real time    0.0654
     EDDAV:  cpu time    0.3946: real time    0.3958
       DOS:  cpu time    0.0006: real time    0.0006
    --------------------------------------------
      LOOP:  cpu time    0.4802: real time    0.5014

 eigenvalue-minimisations  :   960
 total energy-change (2. order) : 0.2992780E+03  (-0.1679509E+04)
 number of electron      60.0000000 magnetization 
 augmentation part       60.0000000 magnetization 

 Free energy of the ion-electron system (eV)
  ---------------------------------------------------
  alpha Z        PSCENC =        30.28014394
  Ewald energy   TEWEN  =     14973.24208224
  -Hartree energ DENC   =    -16928.93300518
  -exchange      EXHF   =         0.00000000
  -V(xc)+E(xc)   XCENC  =        40.33410099
  PAW double counting   =      1677.12035881    -1579.18296132
  entropy T*S    EENTRO =        -0.00047110
  eigenvalues    EBANDS =       -26.04971837
  atomic energy  EATOM  =      2112.46743191
  Solvation  Ediel_sol  =         0.00000000
  ---------------------------------------------------
  free energy    TOTEN  =       299.27796192 eV

  energy without entropy =      299.27843302  energy(sigma->0) =      299.27819747


--------------------------------------------------------------------------------------------------------




--------------------------------------- Iteration      1(   2)  ---------------------------------------


     EDDAV:  cpu time    0.5023: real time    0.5033
       DOS:  cpu time    0.0004: real time    0.0004
    --------------------------------------------
      LOOP:  cpu time    0.5026: real time    0.5037

 eigenvalue-minimisations  :  1336
 total energy-change (2. order) :-0.3309371E+03  (-0.3197878E+03)
 number of electron      60.0000000 magnetization 
 augmentation part       60.0000000 magnetization 

 Free energy of the ion-electron system (eV)
  ---------------------------------------------------
  alpha Z        PSCENC =        30.28014394
  Ewald energy   TEWEN  =     14973.24208224
  -Hartree energ DENC   =    -16928.93300518
  -exchange      EXHF   =         0.00000000
  -V(xc)+E(xc)   XCENC  =        40.33410099
  PAW double counting   =      1677.12035881    -1579.18296132
  entropy T*S    EENTRO =        -0.00000000
  eigenvalues    EBANDS =      -356.98728232
  atomic energy  EATOM  =      2112.46743191
  Solvation  Ediel_sol  =         0.00000000
  ---------------------------------------------------
  free energy    TOTEN  =       -31.65913092 eV

  energy without entropy =      -31.65913092  energy(sigma->0) =      -31.65913092


--------------------------------------------------------------------------------------------------------




--------------------------------------- Iteration      1(   3)  ---------------------------------------


     EDDAV:  cpu time    0.4275: real time    0.4283
       DOS:  cpu time    0.0004: real time    0.0004
    --------------------------------------------
      LOOP:  cpu time    0.4279: real time    0.4287

 eigenvalue-minimisations  :  1144
 total energy-change (2. order) :-0.3191845E+02  (-0.3145399E+02)
 number of electron      60.0000000 magnetization 
 augmentation part       60.0000000 magnetization 

 Free energy of the ion-electron system (eV)
  ---------------------------------------------------
  alpha Z        PSCENC =        30.28014394
  Ewald energy   TEWEN  =     14973.24208224
  -Hartree energ DENC   =    -16928.93300518
  -exchange      EXHF   =         0.00000000
  -V(xc)+E(xc)   XCENC  =        40.33410099
  PAW double counting   =      1677.12035881    -1579.18296132
  entropy T*S    EENTRO =        -0.00000000
  eigenvalues    EBANDS =      -388.90573497
  atomic energy  EATOM  =      2112.46743191
  Solvation  Ediel_sol  =         0.00000000
  ---------------------------------------------------
  free energy    TOTEN  =       -63.57758358 eV

  energy without entropy =      -63.57758358  energy(sigma->0) =      -63.57758358


--------------------------------------------------------------------------------------------------------




--------------------------------------- Iteration      1(   4)  ---------------------------------------


     EDDAV:  cpu time    0.5049: real time    0.5075
       DOS:  cpu time    0.0004: real time    0.0004
    --------------------------------------------
      LOOP:  cpu time    0.5053: real time    0.5079

 eigenvalue-minimisations  :  1432
 total energy-change (2. order) :-0.1156025E+01  (-0.1149345E+01)
 number of electron      60.0000000 magnetization 
 augmentation part       60.0000000 magnetization 

 Free energy of the ion-electron system (eV)
  ---------------------------------------------------
  alpha Z        PSCENC =        30.28014394
  Ewald energy   TEWEN  =     14973.24208224
  -Hartree energ DENC   =    -16928.93300518
  -exchange      EXHF   =         0.00000000
  -V(xc)+E(xc)   XCENC  =        40.33410099
  PAW double counting   =      1677.12035881    -1579.18296132
  entropy T*S    EENTRO =        -0.00000000
  eigenvalues    EBANDS =      -390.06175998
  atomic energy  EATOM  =      2112.46743191
  Solvation  Ediel_sol  =         0.00000000
  ---------------------------------------------------
  free energy    TOTEN  =       -64.73360859 eV

  energy without entropy =      -64.73360859  energy(sigma->0) =      -64.73360859


--------------------------------------------------------------------------------------------------------




--------------------------------------- Iteration      1(   5)  ---------------------------------------


     EDDAV:  cpu time    0.4938: real time    0.4958
       DOS:  cpu time    0.0004: real time    0.0004
    CHARGE:  cpu time    0.0194: real time    0.0196
    MIXING:  cpu time    0.0009: real time    0.0009
    --------------------------------------------
      LOOP:  cpu time    0.5145: real time    0.5167

 eigenvalue-minimisations  :  1392
 total energy-change (2. order) :-0.2917315E-01  (-0.2915416E-01)
 number of electron      59.9999954 magnetization 
 augmentation part       -6.5205822 magnetization 

 Broyden mixing:
  rms(total) = 0.17799E+01    rms(broyden)= 0.17798E+01
  rms(prec ) = 0.17852E+01
  weight for this iteration     100.00

 Free energy of the ion-electron system (eV)
  ---------------------------------------------------
  alpha Z        PSCENC =        30.28014394
  Ewald energy   TEWEN  =     14973.24208224
  -Hartree energ DENC   =    -16928.93300518
  -exchange      EXHF   =         0.00000000
  -V(xc)+E(xc)   XCENC  =        40.33410099
  PAW double counting   =      1677.12035881    -1579.18296132
  entropy T*S    EENTRO =        -0.00000000
  eigenvalues    EBANDS =      -390.09093312
  atomic energy  EATOM  =      2112.46743191
  Solvation  Ediel_sol  =         0.00000000
  ---------------------------------------------------
  free energy    TOTEN  =       -64.76278173 eV

  energy without entropy =      -64.76278173  energy(sigma->0) =      -64.76278173


--------------------------------------------------------------------------------------------------------




--------------------------------------- Iteration      1(   6)  ---------------------------------------


    POTLOK:  cpu time    0.0095: real time    0.0108
    SETDIJ:  cpu time    0.0659: real time    0.0658
     EDDAV:  cpu time    0.4573: real time    0.4579
       DOS:  cpu time    0.0005: real time    0.0005
    CHARGE:  cpu time    0.0180: real time    0.0180
    MIXING:  cpu time    0.0006: real time    0.0006
    --------------------------------------------
      LOOP:  cpu time    0.5517: real time    0.5537

 eigenvalue-minimisations  :  1240
 total energy-change (2. order) : 0.3241514E+00  (-0.1934290E-01)
 number of electron      59.9999954 magnetization 
 augmentation part       -6.4828207 magnetization 

 Broyden mixing:
  rms(total) = 0.10536E+01    rms(broyden)= 0.10536E+01
  rms(prec ) = 0.10568E+01
  weight for this iteration     100.00

 eigenvalues of (default mixing * dielectric matrix)
  average eigenvalue GAMMA=   2.4429
  2.4429

 Free energy of the ion-electron system (eV)
  ---------------------------------------------------
  alpha Z        PSCENC =        30.28014394
  Ewald energy   TEWEN  =     14973.24208224
  -Hartree energ DENC   =    -16941.08258401
  -exchange      EXHF   =         0.00000000
  -V(xc)+E(xc)   XCENC  =        41.38971854
  PAW double counting   =      3181.28131075    -3083.80996706
  entropy T*S    EENTRO =        -0.00000000
  eigenvalues    EBANDS =      -378.20676665
  atomic energy  EATOM  =      2112.46743191
  Solvation  Ediel_sol  =         0.00000000
  ---------------------------------------------------
  free energy    TOTEN  =       -64.43863033 eV

  energy without entropy =      -64.43863033  energy(sigma->0) =      -64.43863033


--------------------------------------------------------------------------------------------------------




--------------------------------------- Iteration      1(   7)  ---------------------------------------


    POTLOK:  cpu time    0.0086: real time    0.0102
    SETDIJ:  cpu time    0.0658: real time    0.0658
     EDDAV:  cpu time    0.4356: real time    0.4365
       DOS:  cpu time    0.0005: real time    0.0005
    CHARGE:  cpu time    0.0183: real time    0.0183
    MIXING:  cpu time    0.0005: real time    0.0005
    --------------------------------------------
      LOOP:  cpu time    0.5293: real time    0.5319

 eigenvalue-minimisations  :  1184
 total energy-change (2. order) : 0.1482069E+00  (-0.3552305E-01)
 number of electron      59.9999955 magnetization 
 augmentation part       -6.4368939 magnetization 

 Broyden mixing:
  rms(total) = 0.44717E-01    rms(broyden)= 0.44715E-01
  rms(prec ) = 0.45986E-01
  weight for this iteration     100.00

 eigenvalues of (default mixing * dielectric matrix)
  average eigenvalue GAMMA=   2.0561
  1.5783  2.5339

 Free energy of the ion-electron system (eV)
  ---------------------------------------------------
  alpha Z        PSCENC =        30.28014394
  Ewald energy   TEWEN  =     14973.24208224
  -Hartree energ DENC   =    -16959.71145697
  -exchange      EXHF   =         0.00000000
  -V(xc)+E(xc)   XCENC  =        43.08795575
  PAW double counting   =      6403.82941512    -6306.92830232
  entropy T*S    EENTRO =        -0.00000023
  eigenvalues    EBANDS =      -360.55769285
  atomic energy  EATOM  =      2112.46743191
  Solvation  Ediel_sol  =         0.00000000
  ---------------------------------------------------
  free energy    TOTEN  =       -64.29042342 eV

  energy without entropy =      -64.29042318  energy(sigma->0) =      -64.29042330


--------------------------------------------------------------------------------------------------------




--------------------------------------- Iteration      1(   8)  ---------------------------------------


    POTLOK:  cpu time    0.0087: real time    0.0107
    SETDIJ:  cpu time    0.0658: real time    0.0658
     EDDAV:  cpu time    0.4524: real time    0.4549
       DOS:  cpu time    0.0005: real time    0.0005
    CHARGE:  cpu time    0.0179: real time    0.0182
    MIXING:  cpu time    0.0005: real time    0.0005
    --------------------------------------------
      LOOP:  cpu time    0.5458: real time    0.5505

 eigenvalue-minimisations  :  1240
 total energy-change (2. order) : 0.1433962E-03  (-0.3051895E-02)
 number of electron      59.9999955 magnetization 
 augmentation part       -6.4469549 magnetization 

 Broyden mixing:
  rms(total) = 0.22743E-01    rms(broyden)= 0.22742E-01
  rms(prec ) = 0.23440E-01
  weight for this iteration     100.00

 eigenvalues of (default mixing * dielectric matrix)
  average eigenvalue GAMMA=   1.5838
  2.5248  1.3592  0.8673

 Free energy of the ion-electron system (eV)
  ---------------------------------------------------
  alpha Z        PSCENC =        30.28014394
  Ewald energy   TEWEN  =     14973.24208224
  -Hartree energ DENC   =    -16960.98072562
  -exchange      EXHF   =         0.00000000
  -V(xc)+E(xc)   XCENC  =        43.12538434
  PAW double counting   =      6524.54597282    -6427.57457729
  entropy T*S    EENTRO =        -0.00000006
  eigenvalues    EBANDS =      -359.39599230
  atomic energy  EATOM  =      2112.46743191
  Solvation  Ediel_sol  =         0.00000000
  ---------------------------------------------------
  free energy    TOTEN  =       -64.29028002 eV

  energy without entropy =      -64.29027996  energy(sigma->0) =      -64.29027999


--------------------------------------------------------------------------------------------------------




--------------------------------------- Iteration      1(   9)  ---------------------------------------


    POTLOK:  cpu time    0.0100: real time    0.0101
    SETDIJ:  cpu time    0.0658: real time    0.0658
     EDDAV:  cpu time    0.4994: real time    0.5003
       DOS:  cpu time    0.0005: real time    0.0005
    CHARGE:  cpu time    0.0178: real time    0.0178
    MIXING:  cpu time    0.0005: real time    0.0005
    --------------------------------------------
      LOOP:  cpu time    0.5940: real time    0.5950

 eigenvalue-minimisations  :  1424
 total energy-change (2. order) : 0.3947272E-04  (-0.1656113E-03)
 number of electron      59.9999955 magnetization 
 augmentation part       -6.4473786 magnetization 

 Broyden mixing:
  rms(total) = 0.19760E-01    rms(broyden)= 0.19760E-01
  rms(prec ) = 0.20342E-01
  weight for this iteration     100.00

 eigenvalues of (default mixing * dielectric matrix)
  average eigenvalue GAMMA=   1.8346
  2.2895  2.2895  1.3797  1.3797

 Free energy of the ion-electron system (eV)
  ---------------------------------------------------
  alpha Z        PSCENC =        30.28014394
  Ewald energy   TEWEN  =     14973.24208224
  -Hartree energ DENC   =    -16961.72433007
  -exchange      EXHF   =         0.00000000
  -V(xc)+E(xc)   XCENC  =        43.13185010
  PAW double counting   =      6519.44768039    -6422.46823585
  entropy T*S    EENTRO =        -0.00000006
  eigenvalues    EBANDS =      -358.66686315
  atomic energy  EATOM  =      2112.46743191
  Solvation  Ediel_sol  =         0.00000000
  ---------------------------------------------------
  free energy    TOTEN  =       -64.29024055 eV

  energy without entropy =      -64.29024049  energy(sigma->0) =      -64.29024052


--------------------------------------------------------------------------------------------------------




--------------------------------------- Iteration      1(  10)  ---------------------------------------


    POTLOK:  cpu time    0.0087: real time    0.0102
    SETDIJ:  cpu time    0.0658: real time    0.0658
     EDDAV:  cpu time    0.4458: real time    0.4467
       DOS:  cpu time    0.0005: real time    0.0005
    CHARGE:  cpu time    0.0181: real time    0.0181
    MIXING:  cpu time    0.0005: real time    0.0005
    --------------------------------------------
      LOOP:  cpu time    0.5394: real time    0.5419

 eigenvalue-minimisations  :  1200
 total energy-change (2. order) : 0.2109327E-03  (-0.3543623E-04)
 number of electron      59.9999955 magnetization 
 augmentation part       -6.4485642 magnetization 

 Broyden mixing:
  rms(total) = 0.14082E-01    rms(broyden)= 0.14082E-01
  rms(prec ) = 0.14573E-01
  weight for this iteration     100.00

 eigenvalues of (default mixing * dielectric matrix)
  average eigenvalue GAMMA=   1.7588
  2.5475  2.5475  1.2833  1.2080  1.2080

 Free energy of the ion-electron system (eV)
  ---------------------------------------------------
  alpha Z        PSCENC =        30.28014394
  Ewald energy   TEWEN  =     14973.24208224
  -Hartree energ DENC   =    -16962.76816439
  -exchange      EXHF   =         0.00000000
  -V(xc)+E(xc)   XCENC  =        43.11852442
  PAW double counting   =      6447.12525453    -6350.12213284
  entropy T*S    EENTRO =        -0.00000004
  eigenvalues    EBANDS =      -357.63316938
  atomic energy  EATOM  =      2112.46743191
  Solvation  Ediel_sol  =         0.00000000
  ---------------------------------------------------
  free energy    TOTEN  =       -64.29002962 eV

  energy without entropy =      -64.29002958  energy(sigma->0) =      -64.29002960


--------------------------------------------------------------------------------------------------------




--------------------------------------- Iteration      1(  11)  ---------------------------------------


    POTLOK:  cpu time    0.0102: real time    0.0103
    SETDIJ:  cpu time    0.0658: real time    0.0658
     EDDAV:  cpu time    0.4700: real time    0.4707
       DOS:  cpu time    0.0005: real time    0.0005
    CHARGE:  cpu time    0.0183: real time    0.0183
    MIXING:  cpu time    0.0006: real time    0.0006
    --------------------------------------------
      LOOP:  cpu time    0.5654: real time    0.5662

 eigenvalue-minimisations  :  1232
 total energy-change (2. order) : 0.2151748E-03  (-0.3876014E-04)
 number of electron      59.9999955 magnetization 
 augmentation part       -6.4481659 magnetization 

 Broyden mixing:
  rms(total) = 0.53886E-02    rms(broyden)= 0.53886E-02
  rms(prec ) = 0.58637E-02
  weight for this iteration     100.00

 eigenvalues of (default mixing * dielectric matrix)
  average eigenvalue GAMMA=   1.6788
  2.5791  2.5791  1.2645  1.2645  1.1928  1.1928

 Free energy of the ion-electron system (eV)
  ---------------------------------------------------
  alpha Z        PSCENC =        30.28014394
  Ewald energy   TEWEN  =     14973.24208224
  -Hartree energ DENC   =    -16964.65877704
  -exchange      EXHF   =         0.00000000
  -V(xc)+E(xc)   XCENC  =        43.14791812
  PAW double counting   =      6461.03253246    -6364.02360379
  entropy T*S    EENTRO =        -0.00000005
  eigenvalues    EBANDS =      -355.77754224
  atomic energy  EATOM  =      2112.46743191
  Solvation  Ediel_sol  =         0.00000000
  ---------------------------------------------------
  free energy    TOTEN  =       -64.28981444 eV

  energy without entropy =      -64.28981439  energy(sigma->0) =      -64.28981442


--------------------------------------------------------------------------------------------------------




--------------------------------------- Iteration      1(  12)  ---------------------------------------


    POTLOK:  cpu time    0.0088: real time    0.0102
    SETDIJ:  cpu time    0.0658: real time    0.0658
     EDDAV:  cpu time    0.4428: real time    0.4437
       DOS:  cpu time    0.0005: real time    0.0005
    CHARGE:  cpu time    0.0178: real time    0.0178
    MIXING:  cpu time    0.0006: real time    0.0006
    --------------------------------------------
      LOOP:  cpu time    0.5363: real time    0.5386

 eigenvalue-minimisations  :  1184
 total energy-change (2. order) :-0.6031571E-04  (-0.5643203E-05)
 number of electron      59.9999955 magnetization 
 augmentation part       -6.4480633 magnetization 

 Broyden mixing:
  rms(total) = 0.17417E-02    rms(broyden)= 0.17417E-02
  rms(prec ) = 0.25033E-02
  weight for this iteration     100.00

 eigenvalues of (default mixing * dielectric matrix)
  average eigenvalue GAMMA=   1.7766
  2.9910  2.5571  1.6541  1.6541  0.9936  1.2933  1.2933

 Free energy of the ion-electron system (eV)
  ---------------------------------------------------
  alpha Z        PSCENC =        30.28014394
  Ewald energy   TEWEN  =     14973.24208224
  -Hartree energ DENC   =    -16965.38199832
  -exchange      EXHF   =         0.00000000
  -V(xc)+E(xc)   XCENC  =        43.15431047
  PAW double counting   =      6468.47672781    -6371.46811082
  entropy T*S    EENTRO =        -0.00000005
  eigenvalues    EBANDS =      -355.06046194
  atomic energy  EATOM  =      2112.46743191
  Solvation  Ediel_sol  =         0.00000000
  ---------------------------------------------------
  free energy    TOTEN  =       -64.28987476 eV

  energy without entropy =      -64.28987471  energy(sigma->0) =      -64.28987473


--------------------------------------------------------------------------------------------------------




--------------------------------------- Iteration      1(  13)  ---------------------------------------


    POTLOK:  cpu time    0.0087: real time    0.0105
    SETDIJ:  cpu time    0.0641: real time    0.0662
     EDDAV:  cpu time    0.4823: real time    0.4999
       DOS:  cpu time    0.0005: real time    0.0005
    CHARGE:  cpu time    0.0180: real time    0.0187
    MIXING:  cpu time    0.0006: real time    0.0006
    --------------------------------------------
      LOOP:  cpu time    0.5743: real time    0.5964

 eigenvalue-minimisations  :  1104
 total energy-change (2. order) :-0.1889012E-03  (-0.8128599E-05)
 number of electron      59.9999955 magnetization 
 augmentation part       -6.4478087 magnetization 

 Broyden mixing:
  rms(total) = 0.36264E-02    rms(broyden)= 0.36264E-02
  rms(prec ) = 0.37532E-02
  weight for this iteration     100.00

 eigenvalues of (default mixing * dielectric matrix)
  average eigenvalue GAMMA=   1.8168
  3.7098  2.4196  2.4196  1.6134  1.1529  1.1529  1.0827  0.9835

 Free energy of the ion-electron system (eV)
  ---------------------------------------------------
  alpha Z        PSCENC =        30.28014394
  Ewald energy   TEWEN  =     14973.24208224
  -Hartree energ DENC   =    -16966.70989939
  -exchange      EXHF   =         0.00000000
  -V(xc)+E(xc)   XCENC  =        43.16500715
  PAW double counting   =      6478.11391945    -6381.10513878
  entropy T*S    EENTRO =        -0.00000006
  eigenvalues    EBANDS =      -353.74361011
  atomic energy  EATOM  =      2112.46743191
  Solvation  Ediel_sol  =         0.00000000
  ---------------------------------------------------
  free energy    TOTEN  =       -64.29006366 eV

  energy without entropy =      -64.29006360  energy(sigma->0) =      -64.29006363


--------------------------------------------------------------------------------------------------------




--------------------------------------- Iteration      1(  14)  ---------------------------------------


    POTLOK:  cpu time    0.0088: real time    0.0104
    SETDIJ:  cpu time    0.0658: real time    0.0658
     EDDAV:  cpu time    0.4024: real time    0.4031
       DOS:  cpu time    0.0005: real time    0.0005
    CHARGE:  cpu time    0.0176: real time    0.0176
    MIXING:  cpu time    0.0006: real time    0.0006
    --------------------------------------------
      LOOP:  cpu time    0.4957: real time    0.4980

 eigenvalue-minimisations  :  1048
 total energy-change (2. order) :-0.1311605E-03  (-0.2802982E-05)
 number of electron      59.9999955 magnetization 
 augmentation part       -6.4476976 magnetization 

 Broyden mixing:
  rms(total) = 0.36201E-02    rms(broyden)= 0.36201E-02
  rms(prec ) = 0.36734E-02
  weight for this iteration     100.00

 eigenvalues of (default mixing * dielectric matrix)
  average eigenvalue GAMMA=   1.6438
  3.5439  2.4233  2.4233  1.6095  1.1923  1.1923  1.1545  0.9068  0.3486

 Free energy of the ion-electron system (eV)
  ---------------------------------------------------
  alpha Z        PSCENC =        30.28014394
  Ewald energy   TEWEN  =     14973.24208224
  -Hartree energ DENC   =    -16967.29439409
  -exchange      EXHF   =         0.00000000
  -V(xc)+E(xc)   XCENC  =        43.16715043
  PAW double counting   =      6476.34239053    -6379.33368275
  entropy T*S    EENTRO =        -0.00000007
  eigenvalues    EBANDS =      -353.16131697
  atomic energy  EATOM  =      2112.46743191
  Solvation  Ediel_sol  =         0.00000000
  ---------------------------------------------------
  free energy    TOTEN  =       -64.29019482 eV

  energy without entropy =      -64.29019475  energy(sigma->0) =      -64.29019479


--------------------------------------------------------------------------------------------------------




--------------------------------------- Iteration      1(  15)  ---------------------------------------


    POTLOK:  cpu time    0.0087: real time    0.0103
    SETDIJ:  cpu time    0.0658: real time    0.0658
     EDDAV:  cpu time    0.3312: real time    0.3322
       DOS:  cpu time    0.0005: real time    0.0005
    CHARGE:  cpu time    0.0177: real time    0.0177
    MIXING:  cpu time    0.0006: real time    0.0006
    --------------------------------------------
      LOOP:  cpu time    0.4246: real time    0.4271

 eigenvalue-minimisations  :   768
 total energy-change (2. order) :-0.2268537E-04  (-0.2148097E-06)
 number of electron      59.9999955 magnetization 
 augmentation part       -6.4477094 magnetization 

 Broyden mixing:
  rms(total) = 0.27658E-02    rms(broyden)= 0.27658E-02
  rms(prec ) = 0.28295E-02
  weight for this iteration     100.00

 eigenvalues of (default mixing * dielectric matrix)
  average eigenvalue GAMMA=   1.9436
  4.5047  2.4871  2.4871  2.1552  2.1552  1.3345  1.3345  1.0568  0.9603  0.9603

 Free energy of the ion-electron system (eV)
  ---------------------------------------------------
  alpha Z        PSCENC =        30.28014394
  Ewald energy   TEWEN  =     14973.24208224
  -Hartree energ DENC   =    -16967.30748149
  -exchange      EXHF   =         0.00000000
  -V(xc)+E(xc)   XCENC  =        43.16669222
  PAW double counting   =      6474.80910235    -6377.80042146
  entropy T*S    EENTRO =        -0.00000007
  eigenvalues    EBANDS =      -353.14776715
  atomic energy  EATOM  =      2112.46743191
  Solvation  Ediel_sol  =         0.00000000
  ---------------------------------------------------
  free energy    TOTEN  =       -64.29021750 eV

  energy without entropy =      -64.29021744  energy(sigma->0) =      -64.29021747


--------------------------------------------------------------------------------------------------------




--------------------------------------- Iteration      1(  16)  ---------------------------------------


    POTLOK:  cpu time    0.0089: real time    0.0103
    SETDIJ:  cpu time    0.0658: real time    0.0658
     EDDAV:  cpu time    0.3768: real time    0.3775
       DOS:  cpu time    0.0006: real time    0.0006
    CHARGE:  cpu time    0.0185: real time    0.0185
    MIXING:  cpu time    0.0008: real time    0.0008
    --------------------------------------------
      LOOP:  cpu time    0.4714: real time    0.4736

 eigenvalue-minimisations  :   944
 total energy-change (2. order) :-0.2492791E-03  (-0.2109946E-05)
 number of electron      59.9999955 magnetization 
 augmentation part       -6.4476437 magnetization 

 Broyden mixing:
  rms(total) = 0.20018E-02    rms(broyden)= 0.20018E-02
  rms(prec ) = 0.20146E-02
  weight for this iteration     100.00

 eigenvalues of (default mixing * dielectric matrix)
  average eigenvalue GAMMA=   1.9873
  6.3911  2.7408  2.2406  2.1009  2.1009  1.3091  1.3091  1.0822  0.8515  0.8672
  0.8672

 Free energy of the ion-electron system (eV)
  ---------------------------------------------------
  alpha Z        PSCENC =        30.28014394
  Ewald energy   TEWEN  =     14973.24208224
  -Hartree energ DENC   =    -16967.91284876
  -exchange      EXHF   =         0.00000000
  -V(xc)+E(xc)   XCENC  =        43.16633890
  PAW double counting   =      6465.64345362    -6368.63438304
  entropy T*S    EENTRO =        -0.00000007
  eigenvalues    EBANDS =      -352.54268553
  atomic energy  EATOM  =      2112.46743191
  Solvation  Ediel_sol  =         0.00000000
  ---------------------------------------------------
  free energy    TOTEN  =       -64.29046678 eV

  energy without entropy =      -64.29046672  energy(sigma->0) =      -64.29046675


--------------------------------------------------------------------------------------------------------




--------------------------------------- Iteration      1(  17)  ---------------------------------------


    POTLOK:  cpu time    0.0089: real time    0.0106
    SETDIJ:  cpu time    0.0658: real time    0.0658
     EDDAV:  cpu time    0.3529: real time    0.3538
       DOS:  cpu time    0.0005: real time    0.0005
    CHARGE:  cpu time    0.0186: real time    0.0186
    MIXING:  cpu time    0.0009: real time    0.0009
    --------------------------------------------
      LOOP:  cpu time    0.4475: real time    0.4501

 eigenvalue-minimisations  :   848
 total energy-change (2. order) :-0.4473016E-04  (-0.3821400E-06)
 number of electron      59.9999955 magnetization 
 augmentation part       -6.4476664 magnetization 

 Broyden mixing:
  rms(total) = 0.18232E-02    rms(broyden)= 0.18232E-02
  rms(prec ) = 0.18296E-02
  weight for this iteration     100.00

 eigenvalues of (default mixing * dielectric matrix)
  average eigenvalue GAMMA=   1.8508
  6.3978  2.6931  2.1713  2.1713  1.9904  1.2734  1.2734  1.1257  0.8320  0.8320
  0.7248  0.7248

 Free energy of the ion-electron system (eV)
  ---------------------------------------------------
  alpha Z        PSCENC =        30.28014394
  Ewald energy   TEWEN  =     14973.24208224
  -Hartree energ DENC   =    -16968.05805624
  -exchange      EXHF   =         0.00000000
  -V(xc)+E(xc)   XCENC  =        43.16646974
  PAW double counting   =      6465.74704575    -6368.73778419
  entropy T*S    EENTRO =        -0.00000007
  eigenvalues    EBANDS =      -352.39784460
  atomic energy  EATOM  =      2112.46743191
  Solvation  Ediel_sol  =         0.00000000
  ---------------------------------------------------
  free energy    TOTEN  =       -64.29051151 eV

  energy without entropy =      -64.29051145  energy(sigma->0) =      -64.29051148


--------------------------------------------------------------------------------------------------------




--------------------------------------- Iteration      1(  18)  ---------------------------------------


    POTLOK:  cpu time    0.0089: real time    0.0104
    SETDIJ:  cpu time    0.0658: real time    0.0658
     EDDAV:  cpu time    0.3272: real time    0.3280
       DOS:  cpu time    0.0005: real time    0.0005
    --------------------------------------------
      LOOP:  cpu time    0.4868: real time    0.4890

 eigenvalue-minimisations  :   744
 total energy-change (2. order) :-0.6081718E-05  (-0.4693967E-07)
 number of electron      59.9999955 magnetization 
 augmentation part       -6.4476664 magnetization 

 Free energy of the ion-electron system (eV)
  ---------------------------------------------------
  alpha Z        PSCENC =        30.28014394
  Ewald energy   TEWEN  =     14973.24208224
  -Hartree energ DENC   =    -16968.06637966
  -exchange      EXHF   =         0.00000000
  -V(xc)+E(xc)   XCENC  =        43.16657548
  PAW double counting   =      6466.44065560    -6369.43135670
  entropy T*S    EENTRO =        -0.00000007
  eigenvalues    EBANDS =      -352.38967033
  atomic energy  EATOM  =      2112.46743191
  Solvation  Ediel_sol  =         0.00000000
  ---------------------------------------------------
  free energy    TOTEN  =       -64.29051760 eV

  energy without entropy =      -64.29051753  energy(sigma->0) =      -64.29051756


--------------------------------------------------------------------------------------------------------




 the core state eigenenergies are
   1-  1s  -2078.3907  2s   -168.4220  2p   -118.9076
   2-  1s  -2078.3907  2s   -168.4220  2p   -118.9076
   3-  1s  -2078.4493  2s   -168.4748  2p   -118.9608
   4-  1s  -2078.4493  2s   -168.4748  2p   -118.9608
   5-  1s  -2078.4797  2s   -168.5060  2p   -118.9920
   6-  1s  -2078.4797  2s   -168.5060  2p   -118.9920
   7-  1s  -2078.4797  2s   -168.5060  2p   -118.9920
   8-  1s  -2078.4797  2s   -168.5060  2p   -118.9920
   9-  1s  -2078.4493  2s   -168.4748  2p   -118.9608
  10-  1s  -2078.4493  2s   -168.4748  2p   -118.9608
  11-  1s  -2078.3907  2s   -168.4220  2p   -118.9076
  12-  1s  -2078.3907  2s   -168.4220  2p   -118.9076
 
 E-fermi :   0.9400     XC(G=0):  -5.1396     alpha+bet : -5.5572


 k-point     1 :       0.0000    0.0000    0.0000
  band No.  band energies     occupation 
      1     -14.8570      2.00000
      2     -14.7368      2.00000
      3     -14.6682      2.00000
      4     -12.3755      2.00000
      5     -12.1299      2.00000
      6     -11.9502      2.00000
      7      -8.6080      2.00000
      8      -8.5239      2.00000
      9      -8.4938      2.00000
     10      -5.9253      2.00000
     11      -5.5465      2.00000
     12      -5.1283      2.00000
     13      -4.5056      2.00000
     14      -4.5053      2.00000
     15      -4.1878      2.00000
     16      -4.1433      2.00000
     17      -3.9956      2.00000
     18      -3.9220      2.00000
     19      -3.3950      2.00000
     20      -3.2941      2.00000
     21      -3.2444      2.00000
     22      -1.8796      2.00000
     23      -1.7361      2.00000
     24      -1.6245      2.00000
     25      -1.5891      2.00000
     26      -1.5044      2.00000
     27      -1.1076      2.00000
     28      -0.2487      2.00000
     29       0.3551      2.00000
     30       0.9103      1.99997
     31       0.9698      0.00003
     32       1.4980      0.00000
     33       1.5260      0.00000
     34       1.6991      0.00000
     35       1.7081      0.00000
     36       1.8635      0.00000
     37       2.7320      0.00000
     38       2.9018      0.00000
     39       2.9721      0.00000
     40       3.6932      0.00000

 k-point     2 :       0.1667    0.0000    0.0000
  band No.  band energies     occupation 
      1     -14.5335      2.00000
      2     -14.4145      2.00000
      3     -14.3471      2.00000
      4     -12.0388      2.00000
      5     -11.7945      2.00000
      6     -11.6159      2.00000
      7      -8.9008      2.00000
      8      -8.8397      2.00000
      9      -8.8337      2.00000
     10      -5.6523      2.00000
     11      -5.2811      2.00000
     12      -4.9731      2.00000
     13      -4.8921      2.00000
     14      -4.8856      2.00000
     15      -4.8541      2.00000
     16      -4.4291      2.00000
     17      -4.3559      2.00000
     18      -4.3450      2.00000
     19      -4.2191      2.00000
     20      -3.8742      2.00000
     21      -3.7300      2.00000
     22      -2.6613      2.00000
     23      -2.5108      2.00000
     24      -2.3455      2.00000
     25      -1.7415      2.00000
     26      -1.4701      2.00000
     27      -0.9677      2.00000
     28      -0.2131      2.00000
     29       0.1875      2.00000
     30       0.4579      2.00000
     31       1.2537      0.00000
     32       1.6581      0.00000
     33       1.8828      0.00000
     34       2.3406      0.00000
     35       2.5524      0.00000
     36       2.5766      0.00000
     37       3.7541      0.00000
     38       3.8795      0.00000
     39       3.9833      0.00000
     40       4.2599      0.00000

 k-point     3 :       0.3333    0.0000    0.0000
  band No.  band energies     occupation 
      1     -13.5804      2.00000
      2     -13.4654      2.00000
      3     -13.4024      2.00000
      4     -11.0370      2.00000
      5     -10.7975      2.00000
      6     -10.6227      2.00000
      7     -10.2437      2.00000
      8     -10.1645      2.00000
      9     -10.1394      2.00000
     10      -7.2226      2.00000
     11      -7.0263      2.00000
     12      -6.8881      2.00000
     13      -4.9315      2.00000
     14      -4.9064      2.00000
     15      -4.8501      2.00000
     16      -4.8410      2.00000
     17      -4.6059      2.00000
     18      -4.3162      2.00000
     19      -3.4257      2.00000
     20      -3.1565      2.00000
     21      -3.0336      2.00000
     22      -2.6855      2.00000
     23      -2.3960      2.00000
     24      -2.1617      2.00000
     25      -1.7905      2.00000
     26      -1.5212      2.00000
     27      -1.1896      2.00000
     28      -0.8921      2.00000
     29      -0.7524      2.00000
     30      -0.6892      2.00000
     31       1.1129      0.00000
     32       1.1742      0.00000
     33       1.4361      0.00000
     34       2.0746      0.00000
     35       2.2881      0.00000
     36       2.6060      0.00000
     37       2.6478      0.00000
     38       2.6659      0.00000
     39       2.6706      0.00000
     40       2.9527      0.00000

 k-point     4 :       0.5000    0.0000    0.0000
  band No.  band energies     occupation 
      1     -12.0697      2.00000
      2     -12.0697      2.00000
      3     -11.9648      2.00000
      4     -11.9648      2.00000
      5     -11.9124      2.00000
      6     -11.9124      2.00000
      7      -9.4015      2.00000
      8      -9.4015      2.00000
      9      -9.1730      2.00000
     10      -9.1730      2.00000
     11      -9.0069      2.00000
     12      -9.0069      2.00000
     13      -4.4706      2.00000
     14      -4.4706      2.00000
     15      -4.3360      2.00000
     16      -4.3360      2.00000
     17      -4.2903      2.00000
     18      -4.2903      2.00000
     19      -2.4670      2.00000
     20      -2.4670      2.00000
     21      -2.3933      2.00000
     22      -2.3933      2.00000
     23      -2.3931      2.00000
     24      -2.3931      2.00000
     25      -2.0102      2.00000
     26      -2.0102      2.00000
     27      -1.7393      2.00000
     28      -1.7393      2.00000
     29      -1.4871      2.00000
     30      -1.4871      2.00000
     31       1.6210      0.00000
     32       1.6210      0.00000
     33       1.6345      0.00000
     34       1.6345      0.00000
     35       1.7161      0.00000
     36       1.7161      0.00000
     37       2.1580      0.00000
     38       2.1588      0.00000
     39       2.1945      0.00000
     40       2.1954      0.00000

 k-point     5 :       0.0000    0.0000    0.2500
  band No.  band energies     occupation 
      1     -14.5056      2.00000
      2     -14.3926      2.00000
      3     -14.3317      2.00000
      4     -12.5983      2.00000
      5     -12.4645      2.00000
      6     -12.4039      2.00000
      7      -9.0069      2.00000
      8      -8.8500      2.00000
      9      -8.7275      2.00000
     10      -6.9129      2.00000
     11      -6.6400      2.00000
     12      -6.4721      2.00000
     13      -4.5492      2.00000
     14      -4.0382      2.00000
     15      -3.3761      2.00000
     16      -3.1172      2.00000
     17      -3.0635      2.00000
     18      -3.0249      2.00000
     19      -2.9845      2.00000
     20      -2.7185      2.00000
     21      -2.7176      2.00000
     22      -1.8647      2.00000
     23      -1.7642      2.00000
     24      -1.7327      2.00000
     25      -1.7257      2.00000
     26      -1.0743      2.00000
     27      -0.4257      2.00000
     28      -0.2668      2.00000
     29      -0.2042      2.00000
     30      -0.0267      2.00000
     31       1.6820      0.00000
     32       2.0089      0.00000
     33       2.1169      0.00000
     34       2.2080      0.00000
     35       2.2575      0.00000
     36       2.2615      0.00000
     37       2.3710      0.00000
     38       2.7109      0.00000
     39       3.2537      0.00000
     40       3.3124      0.00000

 k-point     6 :       0.1667    0.0000    0.2500
  band No.  band energies     occupation 
      1     -14.1868      2.00000
      2     -14.0750      2.00000
      3     -14.0154      2.00000
      4     -12.2823      2.00000
      5     -12.1529      2.00000
      6     -12.0965      2.00000
      7      -9.0408      2.00000
      8      -8.8884      2.00000
      9      -8.7752      2.00000
     10      -6.7969      2.00000
     11      -6.5672      2.00000
     12      -6.4207      2.00000
     13      -4.9868      2.00000
     14      -4.8460      2.00000
     15      -4.7170      2.00000
     16      -4.5121      2.00000
     17      -4.0381      2.00000
     18      -3.7239      2.00000
     19      -3.3133      2.00000
     20      -3.1977      2.00000
     21      -2.9139      2.00000
     22      -2.3355      2.00000
     23      -2.1647      2.00000
     24      -2.1432      2.00000
     25      -1.4983      2.00000
     26      -0.9510      2.00000
     27      -0.8604      2.00000
     28      -0.7303      2.00000
     29      -0.4600      2.00000
     30      -0.4117      2.00000
     31       2.0297      0.00000
     32       2.3144      0.00000
     33       2.5899      0.00000
     34       2.8650      0.00000
     35       3.0154      0.00000
     36       3.0674      0.00000
     37       3.3751      0.00000
     38       3.4996      0.00000
     39       3.6098      0.00000
     40       4.3267      0.00000

 k-point     7 :       0.3333    0.0000    0.2500
  band No.  band energies     occupation 
      1     -13.2557      2.00000
      2     -13.1485      2.00000
      3     -13.0938      2.00000
      4     -11.4389      2.00000
      5     -11.3365      2.00000
      6     -11.3036      2.00000
      7      -9.7517      2.00000
      8      -9.5917      2.00000
      9      -9.4821      2.00000
     10      -7.5252      2.00000
     11      -7.4381      2.00000
     12      -7.4175      2.00000
     13      -5.8336      2.00000
     14      -5.6657      2.00000
     15      -5.5323      2.00000
     16      -4.7979      2.00000
     17      -4.7536      2.00000
     18      -4.6785      2.00000
     19      -3.3916      2.00000
     20      -3.3109      2.00000
     21      -3.1775      2.00000
     22      -2.5121      2.00000
     23      -2.3679      2.00000
     24      -2.3634      2.00000
     25      -2.2353      2.00000
     26      -1.8471      2.00000
     27      -1.3296      2.00000
     28      -0.9593      2.00000
     29      -0.6592      2.00000
     30      -0.6233      2.00000
     31       1.7050      0.00000
     32       1.8348      0.00000
     33       2.0290      0.00000
     34       2.5171      0.00000
     35       2.7081      0.00000
     36       2.9637      0.00000
     37       3.1552      0.00000
     38       3.3327      0.00000
     39       3.3750      0.00000
     40       3.8772      0.00000

 k-point     8 :       0.5000    0.0000    0.2500
  band No.  band energies     occupation 
      1     -11.8566      2.00000
      2     -11.8566      2.00000
      3     -11.7647      2.00000
      4     -11.7647      2.00000
      5     -11.7265      2.00000
      6     -11.7265      2.00000
      7      -9.4326      2.00000
      8      -9.4326      2.00000
      9      -9.2748      2.00000
     10      -9.2748      2.00000
     11      -9.1836      2.00000
     12      -9.1836      2.00000
     13      -5.0182      2.00000
     14      -5.0182      2.00000
     15      -4.8285      2.00000
     16      -4.8285      2.00000
     17      -4.6768      2.00000
     18      -4.6768      2.00000
     19      -3.6863      2.00000
     20      -3.6863      2.00000
     21      -3.4419      2.00000
     22      -3.4419      2.00000
     23      -3.3088      2.00000
     24      -3.3088      2.00000
     25      -1.5489      2.00000
     26      -1.5489      2.00000
     27      -1.2053      2.00000
     28      -1.2053      2.00000
     29      -0.9096      2.00000
     30      -0.9096      2.00000
     31       2.0077      0.00000
     32       2.0077      0.00000
     33       2.3112      0.00000
     34       2.3112      0.00000
     35       2.4585      0.00000
     36       2.4585      0.00000
     37       3.1833      0.00000
     38       3.1833      0.00000
     39       3.4071      0.00000
     40       3.4071      0.00000

 k-point     9 :       0.0000    0.0000    0.5000
  band No.  band energies     occupation 
      1     -13.5493      2.00000
      2     -13.5493      2.00000
      3     -13.4795      2.00000
      4     -13.4795      2.00000
      5     -13.4332      2.00000
      6     -13.4332      2.00000
      7      -8.5719      2.00000
      8      -8.5719      2.00000
      9      -8.2554      2.00000
     10      -8.2554      2.00000
     11      -7.9819      2.00000
     12      -7.9819      2.00000
     13      -3.5914      2.00000
     14      -3.5914      2.00000
     15      -2.8283      2.00000
     16      -2.8283      2.00000
     17      -2.4228      2.00000
     18      -2.4228      2.00000
     19      -2.3792      2.00000
     20      -2.3792      2.00000
     21      -2.3339      2.00000
     22      -2.3339      2.00000
     23      -2.0229      2.00000
     24      -2.0229      2.00000
     25      -0.7273      2.00000
     26      -0.7273      2.00000
     27      -0.5195      2.00000
     28      -0.5195      2.00000
     29      -0.4470      2.00000
     30      -0.4470      2.00000
     31       2.1910      0.00000
     32       2.1910      0.00000
     33       2.2350      0.00000
     34       2.2350      0.00000
     35       2.2871      0.00000
     36       2.2871      0.00000
     37       3.4193      0.00000
     38       3.4205      0.00000
     39       3.5675      0.00000
     40       3.5774      0.00000

 k-point    10 :       0.1667    0.0000    0.5000
  band No.  band energies     occupation 
      1     -13.2432      2.00000
      2     -13.2432      2.00000
      3     -13.1736      2.00000
      4     -13.1736      2.00000
      5     -13.1283      2.00000
      6     -13.1283      2.00000
      7      -8.4271      2.00000
      8      -8.4271      2.00000
      9      -8.1369      2.00000
     10      -8.1369      2.00000
     11      -7.8964      2.00000
     12      -7.8964      2.00000
     13      -4.3707      2.00000
     14      -4.3707      2.00000
     15      -4.2646      2.00000
     16      -4.2646      2.00000
     17      -4.1664      2.00000
     18      -4.1664      2.00000
     19      -3.3512      2.00000
     20      -3.3512      2.00000
     21      -2.6377      2.00000
     22      -2.6377      2.00000
     23      -1.9677      2.00000
     24      -1.9677      2.00000
     25      -0.8112      2.00000
     26      -0.8112      2.00000
     27      -0.6442      2.00000
     28      -0.6442      2.00000
     29      -0.4909      2.00000
     30      -0.4909      2.00000
     31       2.8467      0.00000
     32       2.8467      0.00000
     33       2.9849      0.00000
     34       2.9849      0.00000
     35       3.0980      0.00000
     36       3.0980      0.00000
     37       3.5157      0.00000
     38       3.5157      0.00000
     39       3.9769      0.00000
     40       3.9769      0.00000

 k-point    11 :       0.3333    0.0000    0.5000
  band No.  band energies     occupation 
      1     -12.3852      2.00000
      2     -12.3852      2.00000
      3     -12.3177      2.00000
      4     -12.3177      2.00000
      5     -12.2777      2.00000
      6     -12.2777      2.00000
      7      -8.6648      2.00000
      8      -8.6648      2.00000
      9      -8.5153      2.00000
     10      -8.5153      2.00000
     11      -8.4296      2.00000
     12      -8.4296      2.00000
     13      -5.7965      2.00000
     14      -5.7965      2.00000
     15      -5.5452      2.00000
     16      -5.5452      2.00000
     17      -5.3206      2.00000
     18      -5.3206      2.00000
     19      -3.4354      2.00000
     20      -3.4354      2.00000
     21      -3.0688      2.00000
     22      -3.0688      2.00000
     23      -2.7856      2.00000
     24      -2.7856      2.00000
     25      -1.8724      2.00000
     26      -1.8724      2.00000
     27      -1.3269      2.00000
     28      -1.3269      2.00000
     29      -0.8280      2.00000
     30      -0.8280      2.00000
     31       2.6945      0.00000
     32       2.6945      0.00000
     33       3.2814      0.00000
     34       3.2814      0.00000
     35       3.9588      0.00000
     36       3.9640      0.00000
     37       3.9868      0.00000
     38       3.9946      0.00000
     39       4.0891      0.00000
     40       4.1139      0.00000

 k-point    12 :       0.5000    0.0000    0.5000
  band No.  band energies     occupation 
      1     -11.5685      2.00000
      2     -11.5685      2.00000
      3     -11.5127      2.00000
      4     -11.5127      2.00000
      5     -11.5125      2.00000
      6     -11.5125      2.00000
      7      -9.5316      2.00000
      8      -9.5316      2.00000
      9      -9.4682      2.00000
     10      -9.4682      2.00000
     11      -9.4670      2.00000
     12      -9.4670      2.00000
     13      -4.9614      2.00000
     14      -4.9614      2.00000
     15      -4.9465      2.00000
     16      -4.9465      2.00000
     17      -4.6720      2.00000
     18      -4.6720      2.00000
     19      -4.6174      2.00000
     20      -4.6174      2.00000
     21      -4.3757      2.00000
     22      -4.3757      2.00000
     23      -4.3749      2.00000
     24      -4.3749      2.00000
     25      -1.2342      2.00000
     26      -1.2342      2.00000
     27      -1.1801      2.00000
     28      -1.1801      2.00000
     29      -1.0516      2.00000
     30      -1.0516      2.00000
     31       2.6293      0.00000
     32       2.6293      0.00000
     33       2.7621      0.00000
     34       2.7621      0.00000
     35       2.9004      0.00000
     36       2.9004      0.00000
     37       4.8158      0.00000
     38       4.8251      0.00000
     39       4.8676      0.00000
     40       4.8694      0.00000


--------------------------------------------------------------------------------------------------------


 soft charge-density along one line, spin component           1
         0         1         2         3         4         5         6         7         8         9
 total charge-density along one line
 
 pseudopotential strength for first ion, spin component:           1
 29.686  37.032   0.035  -0.033   0.000   0.055  -0.052   0.000
 37.032  46.200   0.044  -0.041   0.000   0.068  -0.064   0.000
  0.035   0.044   6.554   0.006  -0.000  10.135   0.009  -0.000
 -0.033  -0.041   0.006   6.558  -0.000   0.009  10.141  -0.000
  0.000   0.000  -0.000  -0.000   6.562  -0.000  -0.000  10.148
  0.055   0.068  10.135   0.009  -0.000  15.693   0.014  -0.000
 -0.052  -0.064   0.009  10.141  -0.000   0.014  15.702  -0.000
  0.000   0.000  -0.000  -0.000  10.148  -0.000  -0.000  15.711
 total augmentation occupancy for first ion, spin component:           1
  8.307  -4.730   1.873  -1.961   0.000  -0.607   0.664   0.000
 -4.730   3.430  -1.616   1.671   0.000   0.454  -0.493  -0.000
  1.873  -1.616   3.238   0.186   0.000  -0.872  -0.161   0.000
 -1.961   1.671   0.186   3.381   0.000  -0.159  -0.973  -0.000
  0.000   0.000   0.000   0.000   3.503   0.000   0.000  -1.075
 -0.607   0.454  -0.872  -0.159   0.000   0.276   0.071   0.000
  0.664  -0.493  -0.161  -0.973   0.000   0.071   0.317   0.000
  0.000  -0.000   0.000   0.000  -1.075   0.000   0.000   0.359


------------------------ aborting loop because EDIFF is reached ----------------------------------------


 


 total charge     
 
# of ion       s       p       d       tot
------------------------------------------
    1        1.083   1.380   0.000   2.462
    2        1.083   1.380   0.000   2.462
    3        1.084   1.375   0.000   2.460
    4        1.084   1.375   0.000   2.460
    5        1.085   1.375   0.000   2.459
    6        1.085   1.375   0.000   2.459
    7        1.085   1.375   0.000   2.459
    8        1.085   1.375   0.000   2.459
    9        1.084   1.375   0.000   2.460
   10        1.084   1.375   0.000   2.460
   11        1.083   1.380   0.000   2.462
   12        1.083   1.380   0.000   2.462
--------------------------------------------------
tot         13.006  16.520   0.000  29.526
 
    CHARGE:  cpu time    0.0182: real time    0.0182
    FORLOC:  cpu time    0.0008: real time    0.0008
    FORNL :  cpu time    0.0706: real time    0.0706
    STRESS:  cpu time    0.1065: real time    0.1065
    FORCOR:  cpu time    0.0088: real time    0.0088
    FORHAR:  cpu time    0.0027: real time    0.0027
    MIXING:  cpu time    0.0008: real time    0.0008
    OFIELD:  cpu time    0.0000: real time    0.0000

  DFT-D2 method for vdW energy calculation
  -------------------------------------------------------------------

  Parameters of vdW forcefield:
         C6(Jnm^6/mol)     R0(A)
   -----------------------------
   P        7.840          1.705

  IVDW =  10
  VDW_RADIUS =    50.000 A
  VDW_S6 =     0.750
  VDW_SR =     1.000
  VDW_D =    20.000
  LVDW_EWALD = F

  Number of pair interactions contributing to vdW energy:   88382
  Edisp (eV):   -2.17394
    FORVDW:  cpu time    0.0523: real time    0.0529

  FORCE on cell =-STRESS in cart. coord.  units (eV):
  Direction    XX          YY          ZZ          XY          YZ          ZX
  --------------------------------------------------------------------------------------
  Alpha Z    30.28014    30.28014    30.28014
  Ewald   16591.01473-18044.25022 16426.47569    -0.00000     0.00000     0.00000
  Hartree 16898.10694-16770.87123 16840.94837    -0.00000    -0.00000    -0.00000
  E(xc)    -201.46815  -202.73702  -201.66574    -0.00000     0.00000     0.00000
  Local  -34441.40961 33819.72211-34240.17747    -0.00000     0.00000     0.00000
  n-local   680.17720   678.54643   675.04911    -0.00000    -0.00000     1.47181
  augment  -126.45590  -130.50227  -128.84882     0.00000     0.00000    -0.00000
  Kinetic   570.06468   619.97180   599.88363    -0.00000     0.00000     6.07930
  Fock        0.00000     0.00000     0.00000     0.00000     0.00000     0.00000
  vdW        -0.23282    -1.41063    -0.99576    -0.00000    -0.00000     0.00000
  -------------------------------------------------------------------------------------
  Total       0.07723    -1.25090     0.94915     0.00000     0.00000     0.00000
  in kB       0.25952    -4.20339     3.18941     0.00000     0.00000     0.00000
  external pressure =       -0.25 kB  Pullay stress =        0.00 kB


 VOLUME and BASIS-vectors are now :
 -----------------------------------------------------------------------------
  energy-cutoff  :      300.00
  volume of cell :      476.80
      direct lattice vectors                 reciprocal lattice vectors
     3.342886000  0.000000000  0.000000000     0.299142717  0.000000000  0.000000000
     0.000000000 32.602409000  0.000000000     0.000000000  0.030672580  0.000000000
     0.000000000  0.000000000  4.374831000     0.000000000  0.000000000  0.228580258

  length of vectors
     3.342886000 32.602409000  4.374831000     0.299142717  0.030672580  0.228580258


 FORCES acting on ions
    electron-ion (+dipol)            ewald-force                    non-local-force                 convergence-correction
 -----------------------------------------------------------------------------------------------
   -.138E-14 0.823E+03 -.290E+02   0.114E-14 -.828E+03 0.342E+02   -.278E-16 0.584E+01 -.519E+01   -.292E-14 -.516E-03 -.393E-03
   -.151E-13 0.823E+03 0.290E+02   -.458E-14 -.828E+03 -.342E+02   0.555E-16 0.584E+01 0.519E+01   0.351E-14 -.516E-03 0.393E-03
   0.161E-14 0.459E+03 0.260E+02   0.181E-14 -.453E+03 -.313E+02   0.000E+00 -.554E+01 0.524E+01   -.320E-14 -.208E-02 -.646E-04
   -.161E-13 0.459E+03 -.260E+02   -.613E-14 -.453E+03 0.313E+02   0.000E+00 -.554E+01 -.524E+01   0.274E-14 -.208E-02 0.646E-04
   -.147E-13 0.183E+03 -.261E+02   0.754E-15 -.189E+03 0.314E+02   -.278E-16 0.547E+01 -.523E+01   0.247E-14 0.304E-02 -.901E-03
   0.198E-14 0.183E+03 0.261E+02   -.638E-14 -.189E+03 -.314E+02   0.555E-16 0.547E+01 0.523E+01   -.220E-14 0.304E-02 0.901E-03
   -.160E-13 -.183E+03 0.261E+02   0.197E-14 0.189E+03 -.314E+02   0.278E-16 -.547E+01 0.523E+01   0.518E-14 -.304E-02 0.901E-03
   0.197E-14 -.183E+03 -.261E+02   -.498E-14 0.189E+03 0.314E+02   -.555E-16 -.547E+01 -.523E+01   -.618E-14 -.304E-02 -.901E-03
   0.440E-16 -.459E+03 -.260E+02   0.911E-15 0.453E+03 0.313E+02   0.000E+00 0.554E+01 -.524E+01   -.346E-14 0.208E-02 0.646E-04
   -.169E-13 -.459E+03 0.260E+02   -.523E-14 0.453E+03 -.313E+02   0.000E+00 0.554E+01 0.524E+01   0.291E-14 0.208E-02 -.646E-04
   0.175E-14 -.823E+03 0.290E+02   0.158E-14 0.828E+03 -.342E+02   0.278E-16 -.584E+01 0.519E+01   -.391E-15 0.516E-03 0.393E-03
   -.172E-13 -.823E+03 -.290E+02   -.679E-14 0.828E+03 0.342E+02   -.555E-16 -.584E+01 -.519E+01   -.125E-14 0.516E-03 -.393E-03
 -----------------------------------------------------------------------------------------------
   -.900E-13 0.284E-12 0.433E-10   -.259E-13 0.000E+00 -.711E-14   0.000E+00 0.000E+00 -.888E-15   -.278E-14 0.275E-12 -.539E-14
 
 
 POSITION                                       TOTAL-FORCE (eV/Angst)
 -----------------------------------------------------------------------------------
      0.00000     10.00001      4.02014         0.000000      0.070314     -0.026590
      1.67144     10.00001      2.54211         0.000000      0.070314      0.026590
      0.00000     12.14332      0.35469         0.000000     -0.067288     -0.033356
      1.67144     12.14332      1.83272        -0.000000     -0.067288      0.033356
      1.67144     15.22953      4.02014         0.000000      0.027220      0.014407
      0.00000     15.22953      2.54211         0.000000      0.027220     -0.014407
      1.67144     17.37288      0.35469         0.000000     -0.027220     -0.014407
      0.00000     17.37288      1.83272         0.000000     -0.027220      0.014407
      0.00000     20.45909      4.02014         0.000000      0.067288      0.033356
      1.67144     20.45909      2.54211         0.000000      0.067288     -0.033356
      0.00000     22.60240      0.35469         0.000000     -0.070314      0.026590
      1.67144     22.60240      1.83272         0.000000     -0.070314     -0.026590
 -----------------------------------------------------------------------------------
    total drift:                               -0.000000      0.000000      0.000000


--------------------------------------------------------------------------------------------------------



  FREE ENERGIE OF THE ION-ELECTRON SYSTEM (eV)
  ---------------------------------------------------
  free  energy   TOTEN  =       -66.46445712 eV

  energy  without entropy=      -66.46445705  energy(sigma->0) =      -66.46445708
 


--------------------------------------------------------------------------------------------------------


    POTLOK:  cpu time    0.0836: real time    0.0836


--------------------------------------------------------------------------------------------------------


 writing wavefunctions
     LOOP+:  cpu time   10.2564: real time   10.3390
    4ORBIT:  cpu time    0.0000: real time    0.0000
 


 total charge     
 
# of ion       s       p       d       tot
------------------------------------------
    1        1.083   1.380   0.000   2.462
    2        1.083   1.380   0.000   2.462
    3        1.084   1.375   0.000   2.460
    4        1.084   1.375   0.000   2.460
    5        1.085   1.375   0.000   2.459
    6        1.085   1.375   0.000   2.459
    7        1.085   1.375   0.000   2.459
    8        1.085   1.375   0.000   2.459
    9        1.084   1.375   0.000   2.460
   10        1.084   1.375   0.000   2.460
   11        1.083   1.380   0.000   2.462
   12        1.083   1.380   0.000   2.462
--------------------------------------------------
tot         13.006  16.520   0.000  29.526
 

 total amount of memory used by VASP MPI-rank0    33453. kBytes
=======================================================================

   base      :      30000. kBytes
   nonl-proj :        687. kBytes
   fftplans  :        571. kBytes
   grid      :        784. kBytes
   one-center:          6. kBytes
   wavefun   :       1405. kBytes
 
  
  
 General timing and accounting informations for this job:
 ========================================================
  
                  Total CPU time used (sec):       14.773
                            User time (sec):       13.273
                          System time (sec):        1.500
                         Elapsed time (sec):       15.482
  
                   Maximum memory used (kb):      103292.
                   Average memory used (kb):           0.
  
                          Minor page faults:        31976
                          Major page faults:            0
                 Voluntary context switches:         2039
