<?xml version="1.0" encoding="ISO-8859-1"?>
<modeling>
 <generator>
  <i name="program" type="string">vasp </i>
  <i name="version" type="string">5.4.4.18Apr17-6-g9f103f2a35  </i>
  <i name="subversion" type="string">(build Jun 20 2017 18:00:50) complex            parallel </i>
  <i name="platform" type="string">LinuxIFC </i>
  <i name="date" type="string">2018 03 16 </i>
  <i name="time" type="string">16:01:32 </i>
 </generator>
 <incar>
  <i type="string" name="SYSTEM"> Generic Input</i>
  <i type="int" name="ISTART">     1</i>
  <i type="string" name="PREC">normal    ! precision level</i>
  <i type="int" name="IALGO">    53</i>
  <i type="string" name="ALGO"> Normal    ! SCF minimisation algorithm</i>
  <i type="int" name="INIWAV">     1</i>
  <i type="int" name="NELM">   200</i>
  <i type="int" name="NELMIN">     2</i>
  <i type="int" name="IBRION">     2</i>
  <i name="EDIFF">      0.00001000</i>
  <i name="EDIFFG">     -0.02000000</i>
  <i type="int" name="NSW">     0</i>
  <i type="int" name="ISIF">     3</i>
  <i type="int" name="IWAVPR">    11</i>
  <i type="int" name="NBLOCK">     1</i>
  <i type="int" name="KBLOCK">    40</i>
  <i name="ENCUT">    300.00000000</i>
  <i type="int" name="NEDOS">  2000</i>
  <i type="int" name="ISMEAR">     0</i>
  <i name="SIGMA">      0.01000000</i>
  <i type="int" name="NWRITE">     2</i>
  <i type="logical" name="LVHAR"> T  </i>
  <i type="int" name="LORBIT">    11</i>
  <i type="logical" name="LASPH"> T  </i>
  <i type="int" name="ICORELEVEL">     1</i>
  <v type="int" name="KPOINT_BSE">    -1     0     0     0</v>
  <i type="int" name="NELM">   200</i>
  <i type="string" name="GGA"> PE        ! PBEsol exchange-correlation</i>
  <i type="logical" name="LASPH"> T  </i>
 </incar>
 <structure name="primitive_cell" >
  <crystal>
   <varray name="basis" >
    <v>       3.34288600       0.00000000       0.00000000 </v>
    <v>       0.00000000      32.60240900       0.00000000 </v>
    <v>       0.00000000       0.00000000       4.37483100 </v>
   </varray>
   <i name="volume">    476.79592902 </i>
   <varray name="rec_basis" >
    <v>       0.29914272       0.00000000       0.00000000 </v>
    <v>       0.00000000       0.03067258       0.00000000 </v>
    <v>       0.00000000       0.00000000       0.22858026 </v>
   </varray>
  </crystal>
  <varray name="positions" >
   <v>       0.00000000       0.30672600      -0.08107600 </v>
   <v>      -0.50000000       0.30672600      -0.41892400 </v>
   <v>       0.00000000       0.37246700       0.08107600 </v>
   <v>      -0.50000000       0.37246700       0.41892400 </v>
   <v>       0.00000000       0.46712900      -0.41892400 </v>
   <v>      -0.50000000       0.46712900      -0.08107600 </v>
   <v>      -0.50000000      -0.46712900       0.08107600 </v>
   <v>       0.00000000      -0.46712900       0.41892400 </v>
   <v>       0.00000000      -0.37246700      -0.08107600 </v>
   <v>      -0.50000000      -0.37246700      -0.41892400 </v>
   <v>       0.00000000      -0.30672600       0.08107600 </v>
   <v>      -0.50000000      -0.30672600       0.41892400 </v>
  </varray>
 </structure>
 <varray name="primitive_index" >
  <v type="int" >        1 </v>
  <v type="int" >        2 </v>
  <v type="int" >        3 </v>
  <v type="int" >        4 </v>
  <v type="int" >        6 </v>
  <v type="int" >        5 </v>
  <v type="int" >        7 </v>
  <v type="int" >        8 </v>
  <v type="int" >        9 </v>
  <v type="int" >       10 </v>
  <v type="int" >       11 </v>
  <v type="int" >       12 </v>
 </varray>
 <kpoints>
  <generation param="Gamma">
   <v type="int" name="divisions">       6        1        4 </v>
   <v name="usershift">      0.00000000       0.00000000       0.00000000 </v>
   <v name="genvec1">      0.16666667       0.00000000       0.00000000 </v>
   <v name="genvec2">      0.00000000       1.00000000       0.00000000 </v>
   <v name="genvec3">      0.00000000       0.00000000       0.25000000 </v>
   <v name="shift">      0.00000000       0.00000000       0.00000000 </v>
  </generation>
  <varray name="kpointlist" >
   <v>       0.00000000       0.00000000       0.00000000 </v>
   <v>       0.16666667       0.00000000       0.00000000 </v>
   <v>       0.33333333       0.00000000       0.00000000 </v>
   <v>       0.50000000       0.00000000       0.00000000 </v>
   <v>       0.00000000       0.00000000       0.25000000 </v>
   <v>       0.16666667       0.00000000       0.25000000 </v>
   <v>       0.33333333       0.00000000       0.25000000 </v>
   <v>       0.50000000       0.00000000       0.25000000 </v>
   <v>       0.00000000       0.00000000       0.50000000 </v>
   <v>       0.16666667       0.00000000       0.50000000 </v>
   <v>       0.33333333       0.00000000       0.50000000 </v>
   <v>       0.50000000       0.00000000       0.50000000 </v>
  </varray>
  <varray name="weights" >
   <v>       0.04166667 </v>
   <v>       0.08333333 </v>
   <v>       0.08333333 </v>
   <v>       0.04166667 </v>
   <v>       0.08333333 </v>
   <v>       0.16666667 </v>
   <v>       0.16666667 </v>
   <v>       0.08333333 </v>
   <v>       0.04166667 </v>
   <v>       0.08333333 </v>
   <v>       0.08333333 </v>
   <v>       0.04166667 </v>
  </varray>
 </kpoints>
 <parameters>
  <separator name="general" >
   <i type="string" name="SYSTEM">Generic Input</i>
   <i type="logical" name="LCOMPAT"> F  </i>
  </separator>
  <separator name="electronic" >
   <i type="string" name="PREC">normal</i>
   <i name="ENMAX">    300.00000000</i>
   <i name="ENAUG">    342.92400000</i>
   <i name="EDIFF">      0.00001000</i>
   <i type="int" name="IALGO">    38</i>
   <i type="int" name="IWAVPR">    11</i>
   <i type="int" name="NBANDS">    40</i>
   <i name="NELECT">     60.00000000</i>
   <i type="int" name="TURBO">     0</i>
   <i type="int" name="IRESTART">     0</i>
   <i type="int" name="NREBOOT">     0</i>
   <i type="int" name="NMIN">     0</i>
   <i name="EREF">      0.00000000</i>
   <separator name="electronic smearing" >
    <i type="int" name="ISMEAR">     0</i>
    <i name="SIGMA">      0.01000000</i>
    <i name="KSPACING">      0.50000000</i>
    <i type="logical" name="KGAMMA"> T  </i>
   </separator>
   <separator name="electronic projectors" >
    <i type="logical" name="LREAL"> F  </i>
    <v name="ROPT">      0.00000000</v>
    <i type="int" name="LMAXPAW">  -100</i>
    <i type="int" name="LMAXMIX">     2</i>
    <i type="logical" name="NLSPLINE"> F  </i>
   </separator>
   <separator name="electronic startup" >
    <i type="int" name="ISTART">     0</i>
    <i type="int" name="ICHARG">     2</i>
    <i type="int" name="INIWAV">     1</i>
   </separator>
   <separator name="electronic spin" >
    <i type="int" name="ISPIN">     1</i>
    <i type="logical" name="LNONCOLLINEAR"> F  </i>
    <v name="MAGMOM">      1.00000000      1.00000000      1.00000000      1.00000000      1.00000000      1.00000000      1.00000000      1.00000000      1.00000000      1.00000000      1.00000000      1.00000000</v>
    <i name="NUPDOWN">     -1.00000000</i>
    <i type="logical" name="LSORBIT"> F  </i>
    <v name="SAXIS">      0.00000000      0.00000000      1.00000000</v>
    <i type="logical" name="LSPIRAL"> F  </i>
    <v name="QSPIRAL">      0.00000000      0.00000000      0.00000000</v>
    <i type="logical" name="LZEROZ"> F  </i>
   </separator>
   <separator name="electronic exchange-correlation" >
    <i type="logical" name="LASPH"> T  </i>
    <i type="logical" name="LMETAGGA"> F  </i>
   </separator>
   <separator name="electronic convergence" >
    <i type="int" name="NELM">   200</i>
    <i type="int" name="NELMDL">     0</i>
    <i type="int" name="NELMIN">     2</i>
    <i name="ENINI">    300.00000000</i>
    <separator name="electronic convergence detail" >
     <i type="logical" name="LDIAG"> T  </i>
     <i type="logical" name="LSUBROT"> F  </i>
     <i name="WEIMIN">      0.00000000</i>
     <i name="EBREAK">      0.00000006</i>
     <i name="DEPER">      0.30000000</i>
     <i type="int" name="NRMM">     4</i>
     <i name="TIME">      0.40000000</i>
    </separator>
   </separator>
   <separator name="electronic mixer" >
    <i name="AMIX">      0.40000000</i>
    <i name="BMIX">      1.00000000</i>
    <i name="AMIN">      0.10000000</i>
    <i name="AMIX_MAG">      1.60000000</i>
    <i name="BMIX_MAG">      1.00000000</i>
    <separator name="electronic mixer details" >
     <i type="int" name="IMIX">     4</i>
     <i type="logical" name="MIXFIRST"> F  </i>
     <i type="int" name="MAXMIX">   -45</i>
     <i name="WC">    100.00000000</i>
     <i type="int" name="INIMIX">     1</i>
     <i type="int" name="MIXPRE">     1</i>
     <i type="int" name="MREMOVE">     5</i>
    </separator>
   </separator>
   <separator name="electronic dipolcorrection" >
    <i type="logical" name="LDIPOL"> F  </i>
    <i type="logical" name="LMONO"> F  </i>
    <i type="int" name="IDIPOL">     0</i>
    <i name="EPSILON">      1.00000000</i>
    <v name="DIPOL">   -100.00000000   -100.00000000   -100.00000000</v>
    <i name="EFIELD">      0.00000000</i>
   </separator>
  </separator>
  <separator name="grids" >
   <i type="int" name="NGX">    14</i>
   <i type="int" name="NGY">   140</i>
   <i type="int" name="NGZ">    20</i>
   <i type="int" name="NGXF">    28</i>
   <i type="int" name="NGYF">   280</i>
   <i type="int" name="NGZF">    40</i>
   <i type="logical" name="ADDGRID"> F  </i>
  </separator>
  <separator name="ionic" >
   <i type="int" name="NSW">     0</i>
   <i type="int" name="IBRION">    -1</i>
   <i type="int" name="MDALGO">     0</i>
   <i type="int" name="ISIF">     3</i>
   <i name="PSTRESS">      0.00000000</i>
   <i name="EDIFFG">     -0.02000000</i>
   <i type="int" name="NFREE">     1</i>
   <i name="POTIM">      0.50000000</i>
   <i name="SMASS">     -3.00000000</i>
   <i name="SCALEE">      1.00000000</i>
  </separator>
  <separator name="ionic md" >
   <i name="TEBEG">      0.00010000</i>
   <i name="TEEND">      0.00010000</i>
   <i type="int" name="NBLOCK">     1</i>
   <i type="int" name="KBLOCK">     1</i>
   <i type="int" name="NPACO">   256</i>
   <i name="APACO">     16.00000000</i>
  </separator>
  <separator name="symmetry" >
   <i type="int" name="ISYM">     2</i>
   <i name="SYMPREC">      0.00001000</i>
  </separator>
  <separator name="dos" >
   <i type="int" name="LORBIT">    11</i>
   <v name="RWIGS">     -1.00000000</v>
   <i type="int" name="NEDOS">  2000</i>
   <i name="EMIN">     10.00000000</i>
   <i name="EMAX">    -10.00000000</i>
   <i name="EFERMI">      0.00000000</i>
  </separator>
  <separator name="writing" >
   <i type="int" name="NWRITE">     2</i>
   <i type="logical" name="LWAVE"> T  </i>
   <i type="logical" name="LDOWNSAMPLE"> F  </i>
   <i type="logical" name="LCHARG"> T  </i>
   <i type="logical" name="LPARD"> F  </i>
   <i type="logical" name="LVTOT"> F  </i>
   <i type="logical" name="LVHAR"> T  </i>
   <i type="logical" name="LELF"> F  </i>
   <i type="logical" name="LOPTICS"> F  </i>
   <v name="STM">      0.00000000      0.00000000      0.00000000      0.00000000      0.00000000      0.00000000      0.00000000</v>
  </separator>
  <separator name="performance" >
   <i type="int" name="NPAR">     4</i>
   <i type="int" name="NSIM">     4</i>
   <i type="int" name="NBLK">    -1</i>
   <i type="logical" name="LPLANE"> T  </i>
   <i type="logical" name="LSCALAPACK"> T  </i>
   <i type="logical" name="LSCAAWARE"> F  </i>
   <i type="logical" name="LSCALU"> F  </i>
   <i type="logical" name="LASYNC"> F  </i>
   <i type="logical" name="LORBITALREAL"> F  </i>
  </separator>
  <separator name="miscellaneous" >
   <i type="int" name="IDIOT">     3</i>
   <i type="int" name="ISPECIAL">     0</i>
   <i type="logical" name="LMUSIC"> F  </i>
   <v name="POMASS">     30.97400000</v>
   <v name="DARWINR">      0.00000000</v>
   <v name="DARWINV">      1.00000000</v>
   <i type="logical" name="LCORR"> T  </i>
  </separator>
  <i type="logical" name="GGA_COMPAT"> T  </i>
  <i type="logical" name="LBERRY"> F  </i>
  <i type="int" name="ICORELEVEL">     1</i>
  <i type="int" name="CLNT">     1</i>
  <i type="int" name="CLN">     1</i>
  <i type="int" name="CLL">     0</i>
  <i name="CLZ">      0.00000000</i>
  <i type="logical" name="LDAU"> F  </i>
  <i type="int" name="I_CONSTRAINED_M">     0</i>
  <separator name="electronic exchange-correlation" >
   <i type="string" name="GGA">PE</i>
   <i type="int" name="VOSKOWN">     0</i>
   <i type="logical" name="LHFCALC"> F  </i>
   <i type="string" name="PRECFOCK"></i>
   <i type="logical" name="LSYMGRAD"> F  </i>
   <i type="logical" name="LHFONE"> F  </i>
   <i type="logical" name="LRHFCALC"> F  </i>
   <i type="logical" name="LTHOMAS"> F  </i>
   <i type="logical" name="LMODELHF"> F  </i>
   <i name="ENCUT4O">     -1.00000000</i>
   <i type="int" name="EXXOEP">     0</i>
   <i type="int" name="FOURORBIT">     0</i>
   <i name="AEXX">      0.00000000</i>
   <i name="HFALPHA">      0.00000000</i>
   <i name="MCALPHA">      0.00000000</i>
   <i name="ALDAX">      1.00000000</i>
   <i name="AGGAX">      1.00000000</i>
   <i name="ALDAC">      1.00000000</i>
   <i name="AGGAC">      1.00000000</i>
   <i type="int" name="NKREDX">     1</i>
   <i type="int" name="NKREDY">     1</i>
   <i type="int" name="NKREDZ">     1</i>
   <i type="logical" name="SHIFTRED"> F  </i>
   <i type="logical" name="ODDONLY"> F  </i>
   <i type="logical" name="EVENONLY"> F  </i>
   <i type="int" name="LMAXFOCK">     0</i>
   <i type="int" name="NMAXFOCKAE">     0</i>
   <i type="logical" name="LFOCKAEDFT"> F  </i>
   <i name="HFSCREEN">      0.00000000</i>
   <i name="HFSCREENC">      0.00000000</i>
   <i type="int" name="NBANDSGWLOW">     0</i>
  </separator>
  <separator name="vdW DFT" >
   <i type="logical" name="LUSE_VDW"> F  </i>
   <i name="Zab_VDW">     -0.84910000</i>
   <i name="PARAM1">      0.12340000</i>
   <i name="PARAM2">      1.00000000</i>
   <i name="PARAM3">      0.00000000</i>
  </separator>
  <separator name="model GW" >
   <i type="int" name="MODEL_GW">     0</i>
   <i name="MODEL_EPS0">     23.83979645</i>
   <i name="MODEL_ALPHA">      1.00000000</i>
  </separator>
  <separator name="linear response parameters" >
   <i type="logical" name="LEPSILON"> F  </i>
   <i type="logical" name="LRPA"> F  </i>
   <i type="logical" name="LNABLA"> F  </i>
   <i type="logical" name="LVEL"> F  </i>
   <i type="int" name="KINTER">     0</i>
   <i name="CSHIFT">      0.10000000</i>
   <i name="OMEGAMAX">     -1.00000000</i>
   <i name="DEG_THRESHOLD">      0.00200000</i>
   <i name="RTIME">     -0.10000000</i>
   <i name="WPLASMAI">      0.00000000</i>
   <v name="DFIELD">      0.00000000      0.00000000      0.00000000</v>
   <v name="WPLASMA">      0.00000000      0.00000000      0.00000000      0.00000000      0.00000000      0.00000000      0.00000000      0.00000000      0.00000000</v>
  </separator>
  <separator name="orbital magnetization" >
   <i type="logical" name="NUCIND"> F  </i>
   <v name="MAGPOS">      0.00000000      0.00000000      0.00000000</v>
   <i type="logical" name="LNICSALL"> T  </i>
   <i type="logical" name="ORBITALMAG"> F  </i>
   <i type="logical" name="LMAGBLOCH"> F  </i>
   <i type="logical" name="LCHIMAG"> F  </i>
   <i type="logical" name="LGAUGE"> T  </i>
   <i type="int" name="MAGATOM">     0</i>
   <v name="MAGDIPOL">      0.00000000      0.00000000      0.00000000</v>
   <v name="AVECCONST">      0.00000000      0.00000000      0.00000000</v>
  </separator>
  <separator name="response functions" >
   <i type="logical" name="LADDER"> F  </i>
   <i type="logical" name="LRPAFORCE"> F  </i>
   <i type="logical" name="LFXC"> F  </i>
   <i type="logical" name="LHARTREE"> T  </i>
   <i type="int" name="IBSE">     0</i>
   <v type="int" name="KPOINT">    -1     0     0     0</v>
   <i type="logical" name="LTCTE"> F  </i>
   <i type="logical" name="LTETE"> F  </i>
   <i type="logical" name="LTRIPLET"> F  </i>
   <i type="logical" name="LFXCEPS"> F  </i>
   <i type="logical" name="LFXHEG"> F  </i>
   <i type="int" name="NATURALO">     2</i>
   <i type="logical" name="L2ORDER"> F  </i>
   <i type="logical" name="LMP2LT"> F  </i>
   <i type="logical" name="LUSEW"> F  </i>
   <i name="ENCUTGW">     -2.00000000</i>
   <i name="ENCUTGWSOFT">     -2.00000000</i>
   <i name="ENCUTLF">     -1.00000000</i>
   <i type="int" name="LMAXMP2">    -1</i>
   <i name="SCISSOR">      0.00000000</i>
   <i type="int" name="NOMEGA">     0</i>
   <i type="int" name="NOMEGAR">     0</i>
   <i type="int" name="NBANDSGW">    -1</i>
   <i type="int" name="NBANDSO">    -1</i>
   <i type="int" name="NBANDSV">    -1</i>
   <i type="int" name="NELM">   200</i>
   <i type="int" name="NELMHF">     1</i>
   <i type="int" name="DIM">     3</i>
   <i type="int" name="ANTIRES">     0</i>
   <i name="OMEGAMAX">    -30.00000000</i>
   <i name="OMEGAMIN">    -30.00000000</i>
   <i name="OMEGATL">   -200.00000000</i>
   <i type="int" name="OMEGAGRID">   140</i>
   <i name="CSHIFT">     -0.10000000</i>
   <i type="logical" name="SELFENERGY"> F  </i>
   <i type="logical" name="LSPECTRAL"> F  </i>
   <i type="logical" name="LSPECTRALGW"> F  </i>
   <i type="logical" name="LSINGLES"> F  </i>
   <i type="logical" name="LFERMIGW"> F  </i>
   <i type="logical" name="ODDONLYGW"> F  </i>
   <i type="logical" name="EVENONLYGW"> F  </i>
   <i type="int" name="NKREDLFX">     1</i>
   <i type="int" name="NKREDLFY">     1</i>
   <i type="int" name="NKREDLFZ">     1</i>
   <i type="int" name="MAXMEM">  2800</i>
   <i type="int" name="TELESCOPE">     0</i>
   <i type="int" name="TAUPAR">     1</i>
   <i type="int" name="OMEGAPAR">    -1</i>
   <i name="LAMBDA">      1.00000000</i>
  </separator>
  <separator name="External order field" >
   <i name="OFIELD_KAPPA">      0.00000000</i>
   <v name="OFIELD_K">      0.00000000      0.00000000      0.00000000</v>
   <i name="OFIELD_Q6_NEAR">      0.00000000</i>
   <i name="OFIELD_Q6_FAR">      0.00000000</i>
   <i name="OFIELD_A">      0.00000000</i>
  </separator>
 </parameters>
 <atominfo>
  <atoms>      12 </atoms>
  <types>       1 </types>
  <array name="atoms" >
   <dimension dim="1">ion</dimension>
   <field type="string">element</field>
   <field type="int">atomtype</field>
   <set>
    <rc><c>P </c><c>   1</c></rc>
    <rc><c>P </c><c>   1</c></rc>
    <rc><c>P </c><c>   1</c></rc>
    <rc><c>P </c><c>   1</c></rc>
    <rc><c>P </c><c>   1</c></rc>
    <rc><c>P </c><c>   1</c></rc>
    <rc><c>P </c><c>   1</c></rc>
    <rc><c>P </c><c>   1</c></rc>
    <rc><c>P </c><c>   1</c></rc>
    <rc><c>P </c><c>   1</c></rc>
    <rc><c>P </c><c>   1</c></rc>
    <rc><c>P </c><c>   1</c></rc>
   </set>
  </array>
  <array name="atomtypes" >
   <dimension dim="1">type</dimension>
   <field type="int">atomspertype</field>
   <field type="string">element</field>
   <field>mass</field>
   <field>valence</field>
   <field type="string">pseudopotential</field>
   <set>
    <rc><c>  12</c><c>P </c><c>     30.97400000</c><c>      5.00000000</c><c>  PAW_PBE P 06Sep2000                   </c></rc>
   </set>
  </array>
 </atominfo>
 <structure name="initialpos" >
  <crystal>
   <varray name="basis" >
    <v>       3.34288600       0.00000000       0.00000000 </v>
    <v>       0.00000000      32.60240900       0.00000000 </v>
    <v>       0.00000000       0.00000000       4.37483100 </v>
   </varray>
   <i name="volume">    476.79592902 </i>
   <varray name="rec_basis" >
    <v>       0.29914272       0.00000000       0.00000000 </v>
    <v>       0.00000000       0.03067258       0.00000000 </v>
    <v>       0.00000000       0.00000000       0.22858026 </v>
   </varray>
  </crystal>
  <varray name="positions" >
   <v>       0.00000000       0.30672600       0.91892400 </v>
   <v>       0.50000000       0.30672600       0.58107600 </v>
   <v>       0.00000000       0.37246700       0.08107600 </v>
   <v>       0.50000000       0.37246700       0.41892400 </v>
   <v>       0.50000000       0.46712900       0.91892400 </v>
   <v>       0.00000000       0.46712900       0.58107600 </v>
   <v>       0.50000000       0.53287100       0.08107600 </v>
   <v>       0.00000000       0.53287100       0.41892400 </v>
   <v>       0.00000000       0.62753300       0.91892400 </v>
   <v>       0.50000000       0.62753300       0.58107600 </v>
   <v>       0.00000000       0.69327400       0.08107600 </v>
   <v>       0.50000000       0.69327400       0.41892400 </v>
  </varray>
 </structure>
 <calculation>
  <scstep>
   <time name="dav">    0.39    0.40</time>
   <time name="total">    0.48    0.50</time>
   <energy>
    <i name="alphaZ">     30.28014394 </i>
    <i name="ewald">  14973.24208224 </i>
    <i name="hartreedc"> -16928.93300518 </i>
    <i name="XCdc">     40.33410099 </i>
    <i name="pawpsdc">   1677.12035881 </i>
    <i name="pawaedc">  -1579.18296132 </i>
    <i name="eentropy">     -0.00047110 </i>
    <i name="bandstr">    -26.04971837 </i>
    <i name="atom">   2112.46743191 </i>
    <i name="e_fr_energy">    299.27796192 </i>
    <i name="e_wo_entrp">    299.27843302 </i>
    <i name="e_0_energy">    299.27819747 </i>
   </energy>
  </scstep>
  <scstep>
   <time name="dav">    0.50    0.50</time>
   <time name="total">    0.50    0.50</time>
   <energy>
    <i name="e_fr_energy">    -31.65913092 </i>
    <i name="e_wo_entrp">    -31.65913092 </i>
    <i name="e_0_energy">    -31.65913092 </i>
   </energy>
  </scstep>
  <scstep>
   <time name="dav">    0.43    0.43</time>
   <time name="total">    0.43    0.43</time>
   <energy>
    <i name="e_fr_energy">    -63.57758358 </i>
    <i name="e_wo_entrp">    -63.57758358 </i>
    <i name="e_0_energy">    -63.57758358 </i>
   </energy>
  </scstep>
  <scstep>
   <time name="dav">    0.50    0.51</time>
   <time name="total">    0.51    0.51</time>
   <energy>
    <i name="e_fr_energy">    -64.73360859 </i>
    <i name="e_wo_entrp">    -64.73360859 </i>
    <i name="e_0_energy">    -64.73360859 </i>
   </energy>
  </scstep>
  <scstep>
   <time name="dav">    0.49    0.50</time>
   <time name="total">    0.51    0.52</time>
   <energy>
    <i name="e_fr_energy">    -64.76278173 </i>
    <i name="e_wo_entrp">    -64.76278173 </i>
    <i name="e_0_energy">    -64.76278173 </i>
   </energy>
  </scstep>
  <scstep>
   <time name="dav">    0.46    0.46</time>
   <time name="total">    0.55    0.55</time>
   <energy>
    <i name="e_fr_energy">    -64.43863033 </i>
    <i name="e_wo_entrp">    -64.43863033 </i>
    <i name="e_0_energy">    -64.43863033 </i>
   </energy>
  </scstep>
  <scstep>
   <time name="dav">    0.44    0.44</time>
   <time name="total">    0.53    0.53</time>
   <energy>
    <i name="e_fr_energy">    -64.29042342 </i>
    <i name="e_wo_entrp">    -64.29042318 </i>
    <i name="e_0_energy">    -64.29042330 </i>
   </energy>
  </scstep>
  <scstep>
   <time name="dav">    0.45    0.45</time>
   <time name="total">    0.55    0.55</time>
   <energy>
    <i name="e_fr_energy">    -64.29028002 </i>
    <i name="e_wo_entrp">    -64.29027996 </i>
    <i name="e_0_energy">    -64.29027999 </i>
   </energy>
  </scstep>
  <scstep>
   <time name="dav">    0.50    0.50</time>
   <time name="total">    0.59    0.60</time>
   <energy>
    <i name="e_fr_energy">    -64.29024055 </i>
    <i name="e_wo_entrp">    -64.29024049 </i>
    <i name="e_0_energy">    -64.29024052 </i>
   </energy>
  </scstep>
  <scstep>
   <time name="dav">    0.45    0.45</time>
   <time name="total">    0.54    0.54</time>
   <energy>
    <i name="e_fr_energy">    -64.29002962 </i>
    <i name="e_wo_entrp">    -64.29002958 </i>
    <i name="e_0_energy">    -64.29002960 </i>
   </energy>
  </scstep>
  <scstep>
   <time name="dav">    0.47    0.47</time>
   <time name="total">    0.57    0.57</time>
   <energy>
    <i name="e_fr_energy">    -64.28981444 </i>
    <i name="e_wo_entrp">    -64.28981439 </i>
    <i name="e_0_energy">    -64.28981442 </i>
   </energy>
  </scstep>
  <scstep>
   <time name="dav">    0.44    0.44</time>
   <time name="total">    0.54    0.54</time>
   <energy>
    <i name="e_fr_energy">    -64.28987476 </i>
    <i name="e_wo_entrp">    -64.28987471 </i>
    <i name="e_0_energy">    -64.28987473 </i>
   </energy>
  </scstep>
  <scstep>
   <time name="dav">    0.48    0.50</time>
   <time name="total">    0.57    0.60</time>
   <energy>
    <i name="e_fr_energy">    -64.29006366 </i>
    <i name="e_wo_entrp">    -64.29006360 </i>
    <i name="e_0_energy">    -64.29006363 </i>
   </energy>
  </scstep>
  <scstep>
   <time name="dav">    0.40    0.40</time>
   <time name="total">    0.50    0.50</time>
   <energy>
    <i name="e_fr_energy">    -64.29019482 </i>
    <i name="e_wo_entrp">    -64.29019475 </i>
    <i name="e_0_energy">    -64.29019479 </i>
   </energy>
  </scstep>
  <scstep>
   <time name="dav">    0.33    0.33</time>
   <time name="total">    0.42    0.43</time>
   <energy>
    <i name="e_fr_energy">    -64.29021750 </i>
    <i name="e_wo_entrp">    -64.29021744 </i>
    <i name="e_0_energy">    -64.29021747 </i>
   </energy>
  </scstep>
  <scstep>
   <time name="dav">    0.38    0.38</time>
   <time name="total">    0.47    0.47</time>
   <energy>
    <i name="e_fr_energy">    -64.29046678 </i>
    <i name="e_wo_entrp">    -64.29046672 </i>
    <i name="e_0_energy">    -64.29046675 </i>
   </energy>
  </scstep>
  <scstep>
   <time name="dav">    0.35    0.35</time>
   <time name="total">    0.45    0.45</time>
   <energy>
    <i name="e_fr_energy">    -64.29051151 </i>
    <i name="e_wo_entrp">    -64.29051145 </i>
    <i name="e_0_energy">    -64.29051148 </i>
   </energy>
  </scstep>
  <scstep>
   <time name="dav">    0.33    0.33</time>
   <time name="total">    0.49    0.49</time>
   <energy>
    <i name="alphaZ">     30.28014394 </i>
    <i name="ewald">  14973.24208224 </i>
    <i name="hartreedc"> -16968.06637966 </i>
    <i name="XCdc">     43.16657548 </i>
    <i name="pawpsdc">   6466.44065560 </i>
    <i name="pawaedc">  -6369.43135670 </i>
    <i name="eentropy">     -0.00000007 </i>
    <i name="bandstr">   -352.38967033 </i>
    <i name="atom">   2112.46743191 </i>
    <i name="e_fr_energy">    -64.29051760 </i>
    <i name="e_wo_entrp">    -64.29051753 </i>
    <i name="e_0_energy">    -64.29051756 </i>
   </energy>
  </scstep>
  <structure>
   <crystal>
    <varray name="basis" >
     <v>       3.34288600       0.00000000       0.00000000 </v>
     <v>       0.00000000      32.60240900       0.00000000 </v>
     <v>       0.00000000       0.00000000       4.37483100 </v>
    </varray>
    <i name="volume">    476.79592902 </i>
    <varray name="rec_basis" >
     <v>       0.29914272       0.00000000       0.00000000 </v>
     <v>       0.00000000       0.03067258       0.00000000 </v>
     <v>       0.00000000       0.00000000       0.22858026 </v>
    </varray>
   </crystal>
   <varray name="positions" >
    <v>       0.00000000       0.30672600       0.91892400 </v>
    <v>       0.50000000       0.30672600       0.58107600 </v>
    <v>       0.00000000       0.37246700       0.08107600 </v>
    <v>       0.50000000       0.37246700       0.41892400 </v>
    <v>       0.50000000       0.46712900       0.91892400 </v>
    <v>       0.00000000       0.46712900       0.58107600 </v>
    <v>       0.50000000       0.53287100       0.08107600 </v>
    <v>       0.00000000       0.53287100       0.41892400 </v>
    <v>       0.00000000       0.62753300       0.91892400 </v>
    <v>       0.50000000       0.62753300       0.58107600 </v>
    <v>       0.00000000       0.69327400       0.08107600 </v>
    <v>       0.50000000       0.69327400       0.41892400 </v>
   </varray>
  </structure>
  <varray name="forces" >
   <v>       0.00000000       0.07031401      -0.02658998 </v>
   <v>       0.00000000       0.07031401       0.02658998 </v>
   <v>       0.00000000      -0.06728846      -0.03335578 </v>
   <v>      -0.00000000      -0.06728846       0.03335578 </v>
   <v>       0.00000000       0.02721963       0.01440696 </v>
   <v>       0.00000000       0.02721963      -0.01440696 </v>
   <v>       0.00000000      -0.02721963      -0.01440696 </v>
   <v>       0.00000000      -0.02721963       0.01440696 </v>
   <v>       0.00000000       0.06728846       0.03335578 </v>
   <v>       0.00000000       0.06728846      -0.03335578 </v>
   <v>       0.00000000      -0.07031401       0.02658998 </v>
   <v>       0.00000000      -0.07031401      -0.02658998 </v>
  </varray>
  <varray name="stress" >
   <v>       0.25951766       0.00000000       0.00000000 </v>
   <v>       0.00000000      -4.20338984       0.00000000 </v>
   <v>       0.00000000       0.00000000       3.18941381 </v>
  </varray>
  <energy>
   <i name="e_fr_energy">    -66.46445712 </i>
   <i name="e_wo_entrp">    -66.46445708 </i>
   <i name="e_0_energy">     -0.00000007 </i>
  </energy>
  <time name="totalsc">   10.26   10.34</time>
  <eigenvalues>
   <array>
    <dimension dim="1">band</dimension>
    <dimension dim="2">kpoint</dimension>
    <dimension dim="3">spin</dimension>
    <field>eigene</field>
    <field>occ</field>
    <set>
     <set comment="spin 1">
      <set comment="kpoint 1">
       <r>  -14.8570    1.0000 </r>
       <r>  -14.7368    1.0000 </r>
       <r>  -14.6682    1.0000 </r>
       <r>  -12.3755    1.0000 </r>
       <r>  -12.1299    1.0000 </r>
       <r>  -11.9502    1.0000 </r>
       <r>   -8.6080    1.0000 </r>
       <r>   -8.5239    1.0000 </r>
       <r>   -8.4938    1.0000 </r>
       <r>   -5.9253    1.0000 </r>
       <r>   -5.5465    1.0000 </r>
       <r>   -5.1283    1.0000 </r>
       <r>   -4.5056    1.0000 </r>
       <r>   -4.5053    1.0000 </r>
       <r>   -4.1878    1.0000 </r>
       <r>   -4.1433    1.0000 </r>
       <r>   -3.9956    1.0000 </r>
       <r>   -3.9220    1.0000 </r>
       <r>   -3.3950    1.0000 </r>
       <r>   -3.2941    1.0000 </r>
       <r>   -3.2444    1.0000 </r>
       <r>   -1.8796    1.0000 </r>
       <r>   -1.7361    1.0000 </r>
       <r>   -1.6245    1.0000 </r>
       <r>   -1.5891    1.0000 </r>
       <r>   -1.5044    1.0000 </r>
       <r>   -1.1076    1.0000 </r>
       <r>   -0.2487    1.0000 </r>
       <r>    0.3551    1.0000 </r>
       <r>    0.9103    1.0000 </r>
       <r>    0.9698    0.0000 </r>
       <r>    1.4980    0.0000 </r>
       <r>    1.5260    0.0000 </r>
       <r>    1.6991    0.0000 </r>
       <r>    1.7081    0.0000 </r>
       <r>    1.8635    0.0000 </r>
       <r>    2.7320    0.0000 </r>
       <r>    2.9018    0.0000 </r>
       <r>    2.9721    0.0000 </r>
       <r>    3.6932    0.0000 </r>
      </set>
      <set comment="kpoint 2">
       <r>  -14.5335    1.0000 </r>
       <r>  -14.4145    1.0000 </r>
       <r>  -14.3471    1.0000 </r>
       <r>  -12.0388    1.0000 </r>
       <r>  -11.7945    1.0000 </r>
       <r>  -11.6159    1.0000 </r>
       <r>   -8.9008    1.0000 </r>
       <r>   -8.8397    1.0000 </r>
       <r>   -8.8337    1.0000 </r>
       <r>   -5.6523    1.0000 </r>
       <r>   -5.2811    1.0000 </r>
       <r>   -4.9731    1.0000 </r>
       <r>   -4.8921    1.0000 </r>
       <r>   -4.8856    1.0000 </r>
       <r>   -4.8541    1.0000 </r>
       <r>   -4.4291    1.0000 </r>
       <r>   -4.3559    1.0000 </r>
       <r>   -4.3450    1.0000 </r>
       <r>   -4.2191    1.0000 </r>
       <r>   -3.8742    1.0000 </r>
       <r>   -3.7300    1.0000 </r>
       <r>   -2.6613    1.0000 </r>
       <r>   -2.5108    1.0000 </r>
       <r>   -2.3455    1.0000 </r>
       <r>   -1.7415    1.0000 </r>
       <r>   -1.4701    1.0000 </r>
       <r>   -0.9677    1.0000 </r>
       <r>   -0.2131    1.0000 </r>
       <r>    0.1875    1.0000 </r>
       <r>    0.4579    1.0000 </r>
       <r>    1.2537    0.0000 </r>
       <r>    1.6581    0.0000 </r>
       <r>    1.8828    0.0000 </r>
       <r>    2.3406    0.0000 </r>
       <r>    2.5524    0.0000 </r>
       <r>    2.5766    0.0000 </r>
       <r>    3.7541    0.0000 </r>
       <r>    3.8795    0.0000 </r>
       <r>    3.9833    0.0000 </r>
       <r>    4.2599    0.0000 </r>
      </set>
      <set comment="kpoint 3">
       <r>  -13.5804    1.0000 </r>
       <r>  -13.4654    1.0000 </r>
       <r>  -13.4024    1.0000 </r>
       <r>  -11.0370    1.0000 </r>
       <r>  -10.7975    1.0000 </r>
       <r>  -10.6227    1.0000 </r>
       <r>  -10.2437    1.0000 </r>
       <r>  -10.1645    1.0000 </r>
       <r>  -10.1394    1.0000 </r>
       <r>   -7.2226    1.0000 </r>
       <r>   -7.0263    1.0000 </r>
       <r>   -6.8881    1.0000 </r>
       <r>   -4.9315    1.0000 </r>
       <r>   -4.9064    1.0000 </r>
       <r>   -4.8501    1.0000 </r>
       <r>   -4.8410    1.0000 </r>
       <r>   -4.6059    1.0000 </r>
       <r>   -4.3162    1.0000 </r>
       <r>   -3.4257    1.0000 </r>
       <r>   -3.1565    1.0000 </r>
       <r>   -3.0336    1.0000 </r>
       <r>   -2.6855    1.0000 </r>
       <r>   -2.3960    1.0000 </r>
       <r>   -2.1617    1.0000 </r>
       <r>   -1.7905    1.0000 </r>
       <r>   -1.5212    1.0000 </r>
       <r>   -1.1896    1.0000 </r>
       <r>   -0.8921    1.0000 </r>
       <r>   -0.7524    1.0000 </r>
       <r>   -0.6892    1.0000 </r>
       <r>    1.1129    0.0000 </r>
       <r>    1.1742    0.0000 </r>
       <r>    1.4361    0.0000 </r>
       <r>    2.0746    0.0000 </r>
       <r>    2.2881    0.0000 </r>
       <r>    2.6060    0.0000 </r>
       <r>    2.6478    0.0000 </r>
       <r>    2.6659    0.0000 </r>
       <r>    2.6706    0.0000 </r>
       <r>    2.9527    0.0000 </r>
      </set>
      <set comment="kpoint 4">
       <r>  -12.0697    1.0000 </r>
       <r>  -12.0697    1.0000 </r>
       <r>  -11.9648    1.0000 </r>
       <r>  -11.9648    1.0000 </r>
       <r>  -11.9124    1.0000 </r>
       <r>  -11.9124    1.0000 </r>
       <r>   -9.4015    1.0000 </r>
       <r>   -9.4015    1.0000 </r>
       <r>   -9.1730    1.0000 </r>
       <r>   -9.1730    1.0000 </r>
       <r>   -9.0069    1.0000 </r>
       <r>   -9.0069    1.0000 </r>
       <r>   -4.4706    1.0000 </r>
       <r>   -4.4706    1.0000 </r>
       <r>   -4.3360    1.0000 </r>
       <r>   -4.3360    1.0000 </r>
       <r>   -4.2903    1.0000 </r>
       <r>   -4.2903    1.0000 </r>
       <r>   -2.4670    1.0000 </r>
       <r>   -2.4670    1.0000 </r>
       <r>   -2.3933    1.0000 </r>
       <r>   -2.3933    1.0000 </r>
       <r>   -2.3931    1.0000 </r>
       <r>   -2.3931    1.0000 </r>
       <r>   -2.0102    1.0000 </r>
       <r>   -2.0102    1.0000 </r>
       <r>   -1.7393    1.0000 </r>
       <r>   -1.7393    1.0000 </r>
       <r>   -1.4871    1.0000 </r>
       <r>   -1.4871    1.0000 </r>
       <r>    1.6210    0.0000 </r>
       <r>    1.6210    0.0000 </r>
       <r>    1.6345    0.0000 </r>
       <r>    1.6345    0.0000 </r>
       <r>    1.7161    0.0000 </r>
       <r>    1.7161    0.0000 </r>
       <r>    2.1580    0.0000 </r>
       <r>    2.1588    0.0000 </r>
       <r>    2.1945    0.0000 </r>
       <r>    2.1954    0.0000 </r>
      </set>
      <set comment="kpoint 5">
       <r>  -14.5056    1.0000 </r>
       <r>  -14.3926    1.0000 </r>
       <r>  -14.3317    1.0000 </r>
       <r>  -12.5983    1.0000 </r>
       <r>  -12.4645    1.0000 </r>
       <r>  -12.4039    1.0000 </r>
       <r>   -9.0069    1.0000 </r>
       <r>   -8.8500    1.0000 </r>
       <r>   -8.7275    1.0000 </r>
       <r>   -6.9129    1.0000 </r>
       <r>   -6.6400    1.0000 </r>
       <r>   -6.4721    1.0000 </r>
       <r>   -4.5492    1.0000 </r>
       <r>   -4.0382    1.0000 </r>
       <r>   -3.3761    1.0000 </r>
       <r>   -3.1172    1.0000 </r>
       <r>   -3.0635    1.0000 </r>
       <r>   -3.0249    1.0000 </r>
       <r>   -2.9845    1.0000 </r>
       <r>   -2.7185    1.0000 </r>
       <r>   -2.7176    1.0000 </r>
       <r>   -1.8647    1.0000 </r>
       <r>   -1.7642    1.0000 </r>
       <r>   -1.7327    1.0000 </r>
       <r>   -1.7257    1.0000 </r>
       <r>   -1.0743    1.0000 </r>
       <r>   -0.4257    1.0000 </r>
       <r>   -0.2668    1.0000 </r>
       <r>   -0.2042    1.0000 </r>
       <r>   -0.0267    1.0000 </r>
       <r>    1.6820    0.0000 </r>
       <r>    2.0089    0.0000 </r>
       <r>    2.1169    0.0000 </r>
       <r>    2.2080    0.0000 </r>
       <r>    2.2575    0.0000 </r>
       <r>    2.2615    0.0000 </r>
       <r>    2.3710    0.0000 </r>
       <r>    2.7109    0.0000 </r>
       <r>    3.2537    0.0000 </r>
       <r>    3.3124    0.0000 </r>
      </set>
      <set comment="kpoint 6">
       <r>  -14.1868    1.0000 </r>
       <r>  -14.0750    1.0000 </r>
       <r>  -14.0154    1.0000 </r>
       <r>  -12.2823    1.0000 </r>
       <r>  -12.1529    1.0000 </r>
       <r>  -12.0965    1.0000 </r>
       <r>   -9.0408    1.0000 </r>
       <r>   -8.8884    1.0000 </r>
       <r>   -8.7752    1.0000 </r>
       <r>   -6.7969    1.0000 </r>
       <r>   -6.5672    1.0000 </r>
       <r>   -6.4207    1.0000 </r>
       <r>   -4.9868    1.0000 </r>
       <r>   -4.8460    1.0000 </r>
       <r>   -4.7170    1.0000 </r>
       <r>   -4.5121    1.0000 </r>
       <r>   -4.0381    1.0000 </r>
       <r>   -3.7239    1.0000 </r>
       <r>   -3.3133    1.0000 </r>
       <r>   -3.1977    1.0000 </r>
       <r>   -2.9139    1.0000 </r>
       <r>   -2.3355    1.0000 </r>
       <r>   -2.1647    1.0000 </r>
       <r>   -2.1432    1.0000 </r>
       <r>   -1.4983    1.0000 </r>
       <r>   -0.9510    1.0000 </r>
       <r>   -0.8604    1.0000 </r>
       <r>   -0.7303    1.0000 </r>
       <r>   -0.4600    1.0000 </r>
       <r>   -0.4117    1.0000 </r>
       <r>    2.0297    0.0000 </r>
       <r>    2.3144    0.0000 </r>
       <r>    2.5899    0.0000 </r>
       <r>    2.8650    0.0000 </r>
       <r>    3.0154    0.0000 </r>
       <r>    3.0674    0.0000 </r>
       <r>    3.3751    0.0000 </r>
       <r>    3.4996    0.0000 </r>
       <r>    3.6098    0.0000 </r>
       <r>    4.3267    0.0000 </r>
      </set>
      <set comment="kpoint 7">
       <r>  -13.2557    1.0000 </r>
       <r>  -13.1485    1.0000 </r>
       <r>  -13.0938    1.0000 </r>
       <r>  -11.4389    1.0000 </r>
       <r>  -11.3365    1.0000 </r>
       <r>  -11.3036    1.0000 </r>
       <r>   -9.7517    1.0000 </r>
       <r>   -9.5917    1.0000 </r>
       <r>   -9.4821    1.0000 </r>
       <r>   -7.5252    1.0000 </r>
       <r>   -7.4381    1.0000 </r>
       <r>   -7.4175    1.0000 </r>
       <r>   -5.8336    1.0000 </r>
       <r>   -5.6657    1.0000 </r>
       <r>   -5.5323    1.0000 </r>
       <r>   -4.7979    1.0000 </r>
       <r>   -4.7536    1.0000 </r>
       <r>   -4.6785    1.0000 </r>
       <r>   -3.3916    1.0000 </r>
       <r>   -3.3109    1.0000 </r>
       <r>   -3.1775    1.0000 </r>
       <r>   -2.5121    1.0000 </r>
       <r>   -2.3679    1.0000 </r>
       <r>   -2.3634    1.0000 </r>
       <r>   -2.2353    1.0000 </r>
       <r>   -1.8471    1.0000 </r>
       <r>   -1.3296    1.0000 </r>
       <r>   -0.9593    1.0000 </r>
       <r>   -0.6592    1.0000 </r>
       <r>   -0.6233    1.0000 </r>
       <r>    1.7050    0.0000 </r>
       <r>    1.8348    0.0000 </r>
       <r>    2.0290    0.0000 </r>
       <r>    2.5171    0.0000 </r>
       <r>    2.7081    0.0000 </r>
       <r>    2.9637    0.0000 </r>
       <r>    3.1552    0.0000 </r>
       <r>    3.3327    0.0000 </r>
       <r>    3.3750    0.0000 </r>
       <r>    3.8772    0.0000 </r>
      </set>
      <set comment="kpoint 8">
       <r>  -11.8566    1.0000 </r>
       <r>  -11.8566    1.0000 </r>
       <r>  -11.7647    1.0000 </r>
       <r>  -11.7647    1.0000 </r>
       <r>  -11.7265    1.0000 </r>
       <r>  -11.7265    1.0000 </r>
       <r>   -9.4326    1.0000 </r>
       <r>   -9.4326    1.0000 </r>
       <r>   -9.2748    1.0000 </r>
       <r>   -9.2748    1.0000 </r>
       <r>   -9.1836    1.0000 </r>
       <r>   -9.1836    1.0000 </r>
       <r>   -5.0182    1.0000 </r>
       <r>   -5.0182    1.0000 </r>
       <r>   -4.8285    1.0000 </r>
       <r>   -4.8285    1.0000 </r>
       <r>   -4.6768    1.0000 </r>
       <r>   -4.6768    1.0000 </r>
       <r>   -3.6863    1.0000 </r>
       <r>   -3.6863    1.0000 </r>
       <r>   -3.4419    1.0000 </r>
       <r>   -3.4419    1.0000 </r>
       <r>   -3.3088    1.0000 </r>
       <r>   -3.3088    1.0000 </r>
       <r>   -1.5489    1.0000 </r>
       <r>   -1.5489    1.0000 </r>
       <r>   -1.2053    1.0000 </r>
       <r>   -1.2053    1.0000 </r>
       <r>   -0.9096    1.0000 </r>
       <r>   -0.9096    1.0000 </r>
       <r>    2.0077    0.0000 </r>
       <r>    2.0077    0.0000 </r>
       <r>    2.3112    0.0000 </r>
       <r>    2.3112    0.0000 </r>
       <r>    2.4585    0.0000 </r>
       <r>    2.4585    0.0000 </r>
       <r>    3.1833    0.0000 </r>
       <r>    3.1833    0.0000 </r>
       <r>    3.4071    0.0000 </r>
       <r>    3.4071    0.0000 </r>
      </set>
      <set comment="kpoint 9">
       <r>  -13.5493    1.0000 </r>
       <r>  -13.5493    1.0000 </r>
       <r>  -13.4795    1.0000 </r>
       <r>  -13.4795    1.0000 </r>
       <r>  -13.4332    1.0000 </r>
       <r>  -13.4332    1.0000 </r>
       <r>   -8.5719    1.0000 </r>
       <r>   -8.5719    1.0000 </r>
       <r>   -8.2554    1.0000 </r>
       <r>   -8.2554    1.0000 </r>
       <r>   -7.9819    1.0000 </r>
       <r>   -7.9819    1.0000 </r>
       <r>   -3.5914    1.0000 </r>
       <r>   -3.5914    1.0000 </r>
       <r>   -2.8283    1.0000 </r>
       <r>   -2.8283    1.0000 </r>
       <r>   -2.4228    1.0000 </r>
       <r>   -2.4228    1.0000 </r>
       <r>   -2.3792    1.0000 </r>
       <r>   -2.3792    1.0000 </r>
       <r>   -2.3339    1.0000 </r>
       <r>   -2.3339    1.0000 </r>
       <r>   -2.0229    1.0000 </r>
       <r>   -2.0229    1.0000 </r>
       <r>   -0.7273    1.0000 </r>
       <r>   -0.7273    1.0000 </r>
       <r>   -0.5195    1.0000 </r>
       <r>   -0.5195    1.0000 </r>
       <r>   -0.4470    1.0000 </r>
       <r>   -0.4470    1.0000 </r>
       <r>    2.1910    0.0000 </r>
       <r>    2.1910    0.0000 </r>
       <r>    2.2350    0.0000 </r>
       <r>    2.2350    0.0000 </r>
       <r>    2.2871    0.0000 </r>
       <r>    2.2871    0.0000 </r>
       <r>    3.4193    0.0000 </r>
       <r>    3.4205    0.0000 </r>
       <r>    3.5675    0.0000 </r>
       <r>    3.5774    0.0000 </r>
      </set>
      <set comment="kpoint 10">
       <r>  -13.2432    1.0000 </r>
       <r>  -13.2432    1.0000 </r>
       <r>  -13.1736    1.0000 </r>
       <r>  -13.1736    1.0000 </r>
       <r>  -13.1283    1.0000 </r>
       <r>  -13.1283    1.0000 </r>
       <r>   -8.4271    1.0000 </r>
       <r>   -8.4271    1.0000 </r>
       <r>   -8.1369    1.0000 </r>
       <r>   -8.1369    1.0000 </r>
       <r>   -7.8964    1.0000 </r>
       <r>   -7.8964    1.0000 </r>
       <r>   -4.3707    1.0000 </r>
       <r>   -4.3707    1.0000 </r>
       <r>   -4.2646    1.0000 </r>
       <r>   -4.2646    1.0000 </r>
       <r>   -4.1664    1.0000 </r>
       <r>   -4.1664    1.0000 </r>
       <r>   -3.3512    1.0000 </r>
       <r>   -3.3512    1.0000 </r>
       <r>   -2.6377    1.0000 </r>
       <r>   -2.6377    1.0000 </r>
       <r>   -1.9677    1.0000 </r>
       <r>   -1.9677    1.0000 </r>
       <r>   -0.8112    1.0000 </r>
       <r>   -0.8112    1.0000 </r>
       <r>   -0.6442    1.0000 </r>
       <r>   -0.6442    1.0000 </r>
       <r>   -0.4909    1.0000 </r>
       <r>   -0.4909    1.0000 </r>
       <r>    2.8467    0.0000 </r>
       <r>    2.8467    0.0000 </r>
       <r>    2.9849    0.0000 </r>
       <r>    2.9849    0.0000 </r>
       <r>    3.0980    0.0000 </r>
       <r>    3.0980    0.0000 </r>
       <r>    3.5157    0.0000 </r>
       <r>    3.5157    0.0000 </r>
       <r>    3.9769    0.0000 </r>
       <r>    3.9769    0.0000 </r>
      </set>
      <set comment="kpoint 11">
       <r>  -12.3852    1.0000 </r>
       <r>  -12.3852    1.0000 </r>
       <r>  -12.3177    1.0000 </r>
       <r>  -12.3177    1.0000 </r>
       <r>  -12.2777    1.0000 </r>
       <r>  -12.2777    1.0000 </r>
       <r>   -8.6648    1.0000 </r>
       <r>   -8.6648    1.0000 </r>
       <r>   -8.5153    1.0000 </r>
       <r>   -8.5153    1.0000 </r>
       <r>   -8.4296    1.0000 </r>
       <r>   -8.4296    1.0000 </r>
       <r>   -5.7965    1.0000 </r>
       <r>   -5.7965    1.0000 </r>
       <r>   -5.5452    1.0000 </r>
       <r>   -5.5452    1.0000 </r>
       <r>   -5.3206    1.0000 </r>
       <r>   -5.3206    1.0000 </r>
       <r>   -3.4354    1.0000 </r>
       <r>   -3.4354    1.0000 </r>
       <r>   -3.0688    1.0000 </r>
       <r>   -3.0688    1.0000 </r>
       <r>   -2.7856    1.0000 </r>
       <r>   -2.7856    1.0000 </r>
       <r>   -1.8724    1.0000 </r>
       <r>   -1.8724    1.0000 </r>
       <r>   -1.3269    1.0000 </r>
       <r>   -1.3269    1.0000 </r>
       <r>   -0.8280    1.0000 </r>
       <r>   -0.8280    1.0000 </r>
       <r>    2.6945    0.0000 </r>
       <r>    2.6945    0.0000 </r>
       <r>    3.2814    0.0000 </r>
       <r>    3.2814    0.0000 </r>
       <r>    3.9588    0.0000 </r>
       <r>    3.9640    0.0000 </r>
       <r>    3.9868    0.0000 </r>
       <r>    3.9946    0.0000 </r>
       <r>    4.0891    0.0000 </r>
       <r>    4.1139    0.0000 </r>
      </set>
      <set comment="kpoint 12">
       <r>  -11.5685    1.0000 </r>
       <r>  -11.5685    1.0000 </r>
       <r>  -11.5127    1.0000 </r>
       <r>  -11.5127    1.0000 </r>
       <r>  -11.5125    1.0000 </r>
       <r>  -11.5125    1.0000 </r>
       <r>   -9.5316    1.0000 </r>
       <r>   -9.5316    1.0000 </r>
       <r>   -9.4682    1.0000 </r>
       <r>   -9.4682    1.0000 </r>
       <r>   -9.4670    1.0000 </r>
       <r>   -9.4670    1.0000 </r>
       <r>   -4.9614    1.0000 </r>
       <r>   -4.9614    1.0000 </r>
       <r>   -4.9465    1.0000 </r>
       <r>   -4.9465    1.0000 </r>
       <r>   -4.6720    1.0000 </r>
       <r>   -4.6720    1.0000 </r>
       <r>   -4.6174    1.0000 </r>
       <r>   -4.6174    1.0000 </r>
       <r>   -4.3757    1.0000 </r>
       <r>   -4.3757    1.0000 </r>
       <r>   -4.3749    1.0000 </r>
       <r>   -4.3749    1.0000 </r>
       <r>   -1.2342    1.0000 </r>
       <r>   -1.2342    1.0000 </r>
       <r>   -1.1801    1.0000 </r>
       <r>   -1.1801    1.0000 </r>
       <r>   -1.0516    1.0000 </r>
       <r>   -1.0516    1.0000 </r>
       <r>    2.6293    0.0000 </r>
       <r>    2.6293    0.0000 </r>
       <r>    2.7621    0.0000 </r>
       <r>    2.7621    0.0000 </r>
       <r>    2.9004    0.0000 </r>
       <r>    2.9004    0.0000 </r>
       <r>    4.8158    0.0000 </r>
       <r>    4.8251    0.0000 </r>
       <r>    4.8676    0.0000 </r>
       <r>    4.8694    0.0000 </r>
      </set>
     </set>
    </set>
   </array>
  </eigenvalues>
  <separator name="orbital magnetization" >
   <v name="MAGDIPOLOUT">      0.00000000      0.00000000      0.00000000</v>
  </separator>
  <dos>
   <i name="efermi">      0.94004046 </i>
   <total>
    <array>
     <dimension dim="1">gridpoints</dimension>
     <dimension dim="2">spin</dimension>
     <field>energy</field>
     <field>total</field>
     <field>integrated</field>
     <set>
      <set comment="spin 1">
       <r>   -15.8434     0.0000     0.0000 </r>
       <r>   -15.8325     0.0000     0.0000 </r>
       <r>   -15.8217     0.0000     0.0000 </r>
       <r>   -15.8108     0.0000     0.0000 </r>
       <r>   -15.7999     0.0000     0.0000 </r>
       <r>   -15.7891     0.0000     0.0000 </r>
       <r>   -15.7782     0.0000     0.0000 </r>
       <r>   -15.7674     0.0000     0.0000 </r>
       <r>   -15.7565     0.0000     0.0000 </r>
       <r>   -15.7457     0.0000     0.0000 </r>
       <r>   -15.7348     0.0000     0.0000 </r>
       <r>   -15.7240     0.0000     0.0000 </r>
       <r>   -15.7131     0.0000     0.0000 </r>
       <r>   -15.7022     0.0000     0.0000 </r>
       <r>   -15.6914     0.0000     0.0000 </r>
       <r>   -15.6805     0.0000     0.0000 </r>
       <r>   -15.6697     0.0000     0.0000 </r>
       <r>   -15.6588     0.0000     0.0000 </r>
       <r>   -15.6480     0.0000     0.0000 </r>
       <r>   -15.6371     0.0000     0.0000 </r>
       <r>   -15.6263     0.0000     0.0000 </r>
       <r>   -15.6154     0.0000     0.0000 </r>
       <r>   -15.6046     0.0000     0.0000 </r>
       <r>   -15.5937     0.0000     0.0000 </r>
       <r>   -15.5828     0.0000     0.0000 </r>
       <r>   -15.5720     0.0000     0.0000 </r>
       <r>   -15.5611     0.0000     0.0000 </r>
       <r>   -15.5503     0.0000     0.0000 </r>
       <r>   -15.5394     0.0000     0.0000 </r>
       <r>   -15.5286     0.0000     0.0000 </r>
       <r>   -15.5177     0.0000     0.0000 </r>
       <r>   -15.5069     0.0000     0.0000 </r>
       <r>   -15.4960     0.0000     0.0000 </r>
       <r>   -15.4851     0.0000     0.0000 </r>
       <r>   -15.4743     0.0000     0.0000 </r>
       <r>   -15.4634     0.0000     0.0000 </r>
       <r>   -15.4526     0.0000     0.0000 </r>
       <r>   -15.4417     0.0000     0.0000 </r>
       <r>   -15.4309     0.0000     0.0000 </r>
       <r>   -15.4200     0.0000     0.0000 </r>
       <r>   -15.4092     0.0000     0.0000 </r>
       <r>   -15.3983     0.0000     0.0000 </r>
       <r>   -15.3875     0.0000     0.0000 </r>
       <r>   -15.3766     0.0000     0.0000 </r>
       <r>   -15.3657     0.0000     0.0000 </r>
       <r>   -15.3549     0.0000     0.0000 </r>
       <r>   -15.3440     0.0000     0.0000 </r>
       <r>   -15.3332     0.0000     0.0000 </r>
       <r>   -15.3223     0.0000     0.0000 </r>
       <r>   -15.3115     0.0000     0.0000 </r>
       <r>   -15.3006     0.0000     0.0000 </r>
       <r>   -15.2898     0.0000     0.0000 </r>
       <r>   -15.2789     0.0000     0.0000 </r>
       <r>   -15.2680     0.0000     0.0000 </r>
       <r>   -15.2572     0.0000     0.0000 </r>
       <r>   -15.2463     0.0000     0.0000 </r>
       <r>   -15.2355     0.0000     0.0000 </r>
       <r>   -15.2246     0.0000     0.0000 </r>
       <r>   -15.2138     0.0000     0.0000 </r>
       <r>   -15.2029     0.0000     0.0000 </r>
       <r>   -15.1921     0.0000     0.0000 </r>
       <r>   -15.1812     0.0000     0.0000 </r>
       <r>   -15.1704     0.0000     0.0000 </r>
       <r>   -15.1595     0.0000     0.0000 </r>
       <r>   -15.1486     0.0000     0.0000 </r>
       <r>   -15.1378     0.0000     0.0000 </r>
       <r>   -15.1269     0.0000     0.0000 </r>
       <r>   -15.1161     0.0000     0.0000 </r>
       <r>   -15.1052     0.0000     0.0000 </r>
       <r>   -15.0944     0.0000     0.0000 </r>
       <r>   -15.0835     0.0000     0.0000 </r>
       <r>   -15.0727     0.0000     0.0000 </r>
       <r>   -15.0618     0.0000     0.0000 </r>
       <r>   -15.0510     0.0000     0.0000 </r>
       <r>   -15.0401     0.0000     0.0000 </r>
       <r>   -15.0292     0.0000     0.0000 </r>
       <r>   -15.0184     0.0000     0.0000 </r>
       <r>   -15.0075     0.0000     0.0000 </r>
       <r>   -14.9967     0.0000     0.0000 </r>
       <r>   -14.9858     0.0000     0.0000 </r>
       <r>   -14.9750     0.0000     0.0000 </r>
       <r>   -14.9641     0.0000     0.0000 </r>
       <r>   -14.9533     0.0000     0.0000 </r>
       <r>   -14.9424     0.0000     0.0000 </r>
       <r>   -14.9315     0.0000     0.0000 </r>
       <r>   -14.9207     0.0000     0.0000 </r>
       <r>   -14.9098     0.0000     0.0000 </r>
       <r>   -14.8990     0.0000     0.0000 </r>
       <r>   -14.8881     0.0000     0.0000 </r>
       <r>   -14.8773     0.0162     0.0002 </r>
       <r>   -14.8664     0.6936     0.0077 </r>
       <r>   -14.8556     3.7652     0.0486 </r>
       <r>   -14.8447     2.8908     0.0800 </r>
       <r>   -14.8339     0.3072     0.0833 </r>
       <r>   -14.8230     0.0040     0.0833 </r>
       <r>   -14.8121     0.0000     0.0833 </r>
       <r>   -14.8013     0.0000     0.0833 </r>
       <r>   -14.7904     0.0000     0.0833 </r>
       <r>   -14.7796     0.0000     0.0833 </r>
       <r>   -14.7687     0.0000     0.0833 </r>
       <r>   -14.7579     0.0112     0.0835 </r>
       <r>   -14.7470     0.5630     0.0896 </r>
       <r>   -14.7362     3.5522     0.1281 </r>
       <r>   -14.7253     3.1542     0.1624 </r>
       <r>   -14.7144     0.3904     0.1666 </r>
       <r>   -14.7036     0.0060     0.1667 </r>
       <r>   -14.6927     0.0020     0.1667 </r>
       <r>   -14.6819     0.2009     0.1689 </r>
       <r>   -14.6710     2.4395     0.1953 </r>
       <r>   -14.6602     4.0490     0.2393 </r>
       <r>   -14.6493     0.9564     0.2497 </r>
       <r>   -14.6385     0.0291     0.2500 </r>
       <r>   -14.6276     0.0001     0.2500 </r>
       <r>   -14.6168     0.0000     0.2500 </r>
       <r>   -14.6059     0.0000     0.2500 </r>
       <r>   -14.5950     0.0000     0.2500 </r>
       <r>   -14.5842     0.0000     0.2500 </r>
       <r>   -14.5733     0.0000     0.2500 </r>
       <r>   -14.5625     0.0003     0.2500 </r>
       <r>   -14.5516     0.0806     0.2509 </r>
       <r>   -14.5408     2.2729     0.2756 </r>
       <r>   -14.5299     8.3361     0.3660 </r>
       <r>   -14.5191     4.7915     0.4180 </r>
       <r>   -14.5082     5.3490     0.4761 </r>
       <r>   -14.4973     8.0142     0.5631 </r>
       <r>   -14.4865     1.8106     0.5828 </r>
       <r>   -14.4756     0.0525     0.5833 </r>
       <r>   -14.4648     0.0002     0.5833 </r>
       <r>   -14.4539     0.0000     0.5833 </r>
       <r>   -14.4431     0.0004     0.5833 </r>
       <r>   -14.4322     0.0928     0.5843 </r>
       <r>   -14.4214     2.4447     0.6109 </r>
       <r>   -14.4105     8.4965     0.7031 </r>
       <r>   -14.3997     6.4973     0.7736 </r>
       <r>   -14.3888     8.6505     0.8675 </r>
       <r>   -14.3779     4.2342     0.9135 </r>
       <r>   -14.3671     0.3250     0.9170 </r>
       <r>   -14.3562     1.4735     0.9330 </r>
       <r>   -14.3454     8.0437     1.0203 </r>
       <r>   -14.3345    10.5268     1.1346 </r>
       <r>   -14.3237     8.6631     1.2286 </r>
       <r>   -14.3128     1.9094     1.2494 </r>
       <r>   -14.3020     0.0576     1.2500 </r>
       <r>   -14.2911     0.0002     1.2500 </r>
       <r>   -14.2802     0.0000     1.2500 </r>
       <r>   -14.2694     0.0000     1.2500 </r>
       <r>   -14.2585     0.0000     1.2500 </r>
       <r>   -14.2477     0.0000     1.2500 </r>
       <r>   -14.2368     0.0000     1.2500 </r>
       <r>   -14.2260     0.0000     1.2500 </r>
       <r>   -14.2151     0.0010     1.2500 </r>
       <r>   -14.2043     0.2073     1.2523 </r>
       <r>   -14.1934     5.1738     1.3084 </r>
       <r>   -14.1826    16.9201     1.4921 </r>
       <r>   -14.1717     7.9048     1.5779 </r>
       <r>   -14.1608     0.4972     1.5833 </r>
       <r>   -14.1500     0.0037     1.5833 </r>
       <r>   -14.1391     0.0000     1.5833 </r>
       <r>   -14.1283     0.0000     1.5833 </r>
       <r>   -14.1174     0.0000     1.5833 </r>
       <r>   -14.1066     0.0001     1.5833 </r>
       <r>   -14.0957     0.0523     1.5839 </r>
       <r>   -14.0849     2.4606     1.6106 </r>
       <r>   -14.0740    14.5783     1.7689 </r>
       <r>   -14.0631    12.1816     1.9011 </r>
       <r>   -14.0523     1.4148     1.9164 </r>
       <r>   -14.0414     0.0236     1.9167 </r>
       <r>   -14.0306     0.4772     1.9219 </r>
       <r>   -14.0197     7.7571     2.0061 </r>
       <r>   -14.0089    16.9563     2.1901 </r>
       <r>   -13.9980     5.2959     2.2476 </r>
       <r>   -13.9872     0.2170     2.2500 </r>
       <r>   -13.9763     0.0010     2.2500 </r>
       <r>   -13.9655     0.0000     2.2500 </r>
       <r>   -13.9546     0.0000     2.2500 </r>
       <r>   -13.9437     0.0000     2.2500 </r>
       <r>   -13.9329     0.0000     2.2500 </r>
       <r>   -13.9220     0.0000     2.2500 </r>
       <r>   -13.9112     0.0000     2.2500 </r>
       <r>   -13.9003     0.0000     2.2500 </r>
       <r>   -13.8895     0.0000     2.2500 </r>
       <r>   -13.8786     0.0000     2.2500 </r>
       <r>   -13.8678     0.0000     2.2500 </r>
       <r>   -13.8569     0.0000     2.2500 </r>
       <r>   -13.8460     0.0000     2.2500 </r>
       <r>   -13.8352     0.0000     2.2500 </r>
       <r>   -13.8243     0.0000     2.2500 </r>
       <r>   -13.8135     0.0000     2.2500 </r>
       <r>   -13.8026     0.0000     2.2500 </r>
       <r>   -13.7918     0.0000     2.2500 </r>
       <r>   -13.7809     0.0000     2.2500 </r>
       <r>   -13.7701     0.0000     2.2500 </r>
       <r>   -13.7592     0.0000     2.2500 </r>
       <r>   -13.7484     0.0000     2.2500 </r>
       <r>   -13.7375     0.0000     2.2500 </r>
       <r>   -13.7266     0.0000     2.2500 </r>
       <r>   -13.7158     0.0000     2.2500 </r>
       <r>   -13.7049     0.0000     2.2500 </r>
       <r>   -13.6941     0.0000     2.2500 </r>
       <r>   -13.6832     0.0000     2.2500 </r>
       <r>   -13.6724     0.0000     2.2500 </r>
       <r>   -13.6615     0.0000     2.2500 </r>
       <r>   -13.6507     0.0000     2.2500 </r>
       <r>   -13.6398     0.0000     2.2500 </r>
       <r>   -13.6289     0.0000     2.2500 </r>
       <r>   -13.6181     0.0000     2.2500 </r>
       <r>   -13.6072     0.0011     2.2500 </r>
       <r>   -13.5964     0.1791     2.2520 </r>
       <r>   -13.5855     3.3904     2.2888 </r>
       <r>   -13.5747     8.5538     2.3816 </r>
       <r>   -13.5638     3.3880     2.4184 </r>
       <r>   -13.5530     4.4740     2.4670 </r>
       <r>   -13.5421     8.3437     2.5575 </r>
       <r>   -13.5313     2.2953     2.5824 </r>
       <r>   -13.5204     0.0821     2.5833 </r>
       <r>   -13.5095     0.0005     2.5833 </r>
       <r>   -13.4987     0.0515     2.5839 </r>
       <r>   -13.4878     1.8028     2.6035 </r>
       <r>   -13.4770     8.7693     2.6987 </r>
       <r>   -13.4661    11.3654     2.8220 </r>
       <r>   -13.4553     7.5726     2.9042 </r>
       <r>   -13.4444     2.0000     2.9259 </r>
       <r>   -13.4336     6.5503     2.9970 </r>
       <r>   -13.4227     6.9372     3.0723 </r>
       <r>   -13.4119     2.4030     3.0984 </r>
       <r>   -13.4010     7.5356     3.1802 </r>
       <r>   -13.3901     5.8002     3.2432 </r>
       <r>   -13.3793     0.6197     3.2499 </r>
       <r>   -13.3684     0.0081     3.2500 </r>
       <r>   -13.3576     0.0000     3.2500 </r>
       <r>   -13.3467     0.0000     3.2500 </r>
       <r>   -13.3359     0.0000     3.2500 </r>
       <r>   -13.3250     0.0000     3.2500 </r>
       <r>   -13.3142     0.0000     3.2500 </r>
       <r>   -13.3033     0.0000     3.2500 </r>
       <r>   -13.2924     0.0000     3.2500 </r>
       <r>   -13.2816     0.0038     3.2500 </r>
       <r>   -13.2707     0.5038     3.2555 </r>
       <r>   -13.2599     8.2211     3.3447 </r>
       <r>   -13.2490    22.9241     3.5936 </r>
       <r>   -13.2382    22.2339     3.8349 </r>
       <r>   -13.2273     7.1493     3.9125 </r>
       <r>   -13.2165     0.3775     3.9166 </r>
       <r>   -13.2056     0.0025     3.9167 </r>
       <r>   -13.1948     0.0435     3.9171 </r>
       <r>   -13.1839     2.2173     3.9412 </r>
       <r>   -13.1730    14.1511     4.0948 </r>
       <r>   -13.1622    13.4981     4.2413 </r>
       <r>   -13.1513    11.3809     4.3649 </r>
       <r>   -13.1405    17.5112     4.5550 </r>
       <r>   -13.1296    15.6222     4.7245 </r>
       <r>   -13.1188    14.9977     4.8873 </r>
       <r>   -13.1079     3.3392     4.9236 </r>
       <r>   -13.0971     9.2116     5.0236 </r>
       <r>   -13.0862    16.4852     5.2025 </r>
       <r>   -13.0753     4.2322     5.2485 </r>
       <r>   -13.0645     0.1407     5.2500 </r>
       <r>   -13.0536     0.0005     5.2500 </r>
       <r>   -13.0428     0.0000     5.2500 </r>
       <r>   -13.0319     0.0000     5.2500 </r>
       <r>   -13.0211     0.0000     5.2500 </r>
       <r>   -13.0102     0.0000     5.2500 </r>
       <r>   -12.9994     0.0000     5.2500 </r>
       <r>   -12.9885     0.0000     5.2500 </r>
       <r>   -12.9777     0.0000     5.2500 </r>
       <r>   -12.9668     0.0000     5.2500 </r>
       <r>   -12.9559     0.0000     5.2500 </r>
       <r>   -12.9451     0.0000     5.2500 </r>
       <r>   -12.9342     0.0000     5.2500 </r>
       <r>   -12.9234     0.0000     5.2500 </r>
       <r>   -12.9125     0.0000     5.2500 </r>
       <r>   -12.9017     0.0000     5.2500 </r>
       <r>   -12.8908     0.0000     5.2500 </r>
       <r>   -12.8800     0.0000     5.2500 </r>
       <r>   -12.8691     0.0000     5.2500 </r>
       <r>   -12.8582     0.0000     5.2500 </r>
       <r>   -12.8474     0.0000     5.2500 </r>
       <r>   -12.8365     0.0000     5.2500 </r>
       <r>   -12.8257     0.0000     5.2500 </r>
       <r>   -12.8148     0.0000     5.2500 </r>
       <r>   -12.8040     0.0000     5.2500 </r>
       <r>   -12.7931     0.0000     5.2500 </r>
       <r>   -12.7823     0.0000     5.2500 </r>
       <r>   -12.7714     0.0000     5.2500 </r>
       <r>   -12.7606     0.0000     5.2500 </r>
       <r>   -12.7497     0.0000     5.2500 </r>
       <r>   -12.7388     0.0000     5.2500 </r>
       <r>   -12.7280     0.0000     5.2500 </r>
       <r>   -12.7171     0.0000     5.2500 </r>
       <r>   -12.7063     0.0000     5.2500 </r>
       <r>   -12.6954     0.0000     5.2500 </r>
       <r>   -12.6846     0.0000     5.2500 </r>
       <r>   -12.6737     0.0000     5.2500 </r>
       <r>   -12.6629     0.0000     5.2500 </r>
       <r>   -12.6520     0.0000     5.2500 </r>
       <r>   -12.6411     0.0000     5.2500 </r>
       <r>   -12.6303     0.0000     5.2500 </r>
       <r>   -12.6194     0.0211     5.2502 </r>
       <r>   -12.6086     1.0879     5.2620 </r>
       <r>   -12.5977     7.0315     5.3384 </r>
       <r>   -12.5869     6.3904     5.4077 </r>
       <r>   -12.5760     0.8103     5.4165 </r>
       <r>   -12.5652     0.0127     5.4167 </r>
       <r>   -12.5543     0.0000     5.4167 </r>
       <r>   -12.5435     0.0000     5.4167 </r>
       <r>   -12.5326     0.0000     5.4167 </r>
       <r>   -12.5217     0.0000     5.4167 </r>
       <r>   -12.5109     0.0000     5.4167 </r>
       <r>   -12.5000     0.0000     5.4167 </r>
       <r>   -12.4892     0.0036     5.4167 </r>
       <r>   -12.4783     0.3796     5.4208 </r>
       <r>   -12.4675     4.7636     5.4725 </r>
       <r>   -12.4566     8.1559     5.5611 </r>
       <r>   -12.4458     1.9885     5.5827 </r>
       <r>   -12.4349     0.0626     5.5833 </r>
       <r>   -12.4240     0.0339     5.5837 </r>
       <r>   -12.4132     1.4203     5.5991 </r>
       <r>   -12.4023     7.8098     5.6839 </r>
       <r>   -12.3915    11.3191     5.8068 </r>
       <r>   -12.3806    19.3250     6.0165 </r>
       <r>   -12.3698    11.7912     6.1445 </r>
       <r>   -12.3589     1.9648     6.1659 </r>
       <r>   -12.3481     0.0749     6.1667 </r>
       <r>   -12.3372     0.0897     6.1676 </r>
       <r>   -12.3264     3.3150     6.2036 </r>
       <r>   -12.3155    15.7246     6.3743 </r>
       <r>   -12.3046    10.6140     6.4895 </r>
       <r>   -12.2938     2.9050     6.5211 </r>
       <r>   -12.2829    19.3639     6.7313 </r>
       <r>   -12.2721    31.2800     7.0708 </r>
       <r>   -12.2612     8.4832     7.1629 </r>
       <r>   -12.2504     0.3468     7.1666 </r>
       <r>   -12.2395     0.0018     7.1667 </r>
       <r>   -12.2287     0.0000     7.1667 </r>
       <r>   -12.2178     0.0000     7.1667 </r>
       <r>   -12.2069     0.0000     7.1667 </r>
       <r>   -12.1961     0.0000     7.1667 </r>
       <r>   -12.1852     0.0001     7.1667 </r>
       <r>   -12.1744     0.0371     7.1671 </r>
       <r>   -12.1635     2.0228     7.1890 </r>
       <r>   -12.1527    13.7551     7.3383 </r>
       <r>   -12.1418    13.4646     7.4845 </r>
       <r>   -12.1310     4.7708     7.5363 </r>
       <r>   -12.1201     3.7061     7.5765 </r>
       <r>   -12.1093     1.6941     7.5949 </r>
       <r>   -12.0984    10.9631     7.7139 </r>
       <r>   -12.0875    15.5811     7.8830 </r>
       <r>   -12.0767     5.4984     7.9427 </r>
       <r>   -12.0658     8.4676     8.0346 </r>
       <r>   -12.0550     4.3669     8.0820 </r>
       <r>   -12.0441     3.5595     8.1207 </r>
       <r>   -12.0333     8.5580     8.2136 </r>
       <r>   -12.0224     3.1960     8.2483 </r>
       <r>   -12.0116     0.1585     8.2500 </r>
       <r>   -12.0007     0.0009     8.2500 </r>
       <r>   -11.9898     0.0030     8.2500 </r>
       <r>   -11.9790     0.3360     8.2537 </r>
       <r>   -11.9681     4.5626     8.3032 </r>
       <r>   -11.9573     9.4438     8.4057 </r>
       <r>   -11.9464     6.3412     8.4746 </r>
       <r>   -11.9356     2.2051     8.4985 </r>
       <r>   -11.9247     0.7661     8.5068 </r>
       <r>   -11.9139     5.8021     8.5698 </r>
       <r>   -11.9030     7.5160     8.6514 </r>
       <r>   -11.8922     1.3770     8.6663 </r>
       <r>   -11.8813     0.0392     8.6667 </r>
       <r>   -11.8704     0.7638     8.6750 </r>
       <r>   -11.8596     9.5516     8.7787 </r>
       <r>   -11.8487    16.2999     8.9557 </r>
       <r>   -11.8379     3.9607     8.9986 </r>
       <r>   -11.8270     0.1242     9.0000 </r>
       <r>   -11.8162     0.0173     9.0002 </r>
       <r>   -11.8053     0.9563     9.0106 </r>
       <r>   -11.7945     6.7540     9.0839 </r>
       <r>   -11.7836     6.8010     9.1577 </r>
       <r>   -11.7727     4.7511     9.2093 </r>
       <r>   -11.7619    16.2113     9.3852 </r>
       <r>   -11.7510     9.7678     9.4913 </r>
       <r>   -11.7402     1.6190     9.5089 </r>
       <r>   -11.7293     9.8256     9.6155 </r>
       <r>   -11.7185    16.1652     9.7910 </r>
       <r>   -11.7076     3.7872     9.8321 </r>
       <r>   -11.6968     0.1142     9.8333 </r>
       <r>   -11.6859     0.0004     9.8333 </r>
       <r>   -11.6751     0.0000     9.8333 </r>
       <r>   -11.6642     0.0000     9.8333 </r>
       <r>   -11.6533     0.0000     9.8333 </r>
       <r>   -11.6425     0.0013     9.8333 </r>
       <r>   -11.6316     0.2009     9.8355 </r>
       <r>   -11.6208     3.5802     9.8744 </r>
       <r>   -11.6099     8.5328     9.9670 </r>
       <r>   -11.5991     2.9075     9.9986 </r>
       <r>   -11.5882     0.1714    10.0004 </r>
       <r>   -11.5774     1.5763    10.0175 </r>
       <r>   -11.5665     7.7717    10.1019 </r>
       <r>   -11.5557     5.4359    10.1609 </r>
       <r>   -11.5448     0.5239    10.1666 </r>
       <r>   -11.5339     0.0456    10.1671 </r>
       <r>   -11.5231     2.0959    10.1898 </r>
       <r>   -11.5122    13.9014    10.3407 </r>
       <r>   -11.5014    12.9566    10.4814 </r>
       <r>   -11.4905     1.6872    10.4997 </r>
       <r>   -11.4797     0.0272    10.5000 </r>
       <r>   -11.4688     0.0004    10.5000 </r>
       <r>   -11.4580     0.1059    10.5012 </r>
       <r>   -11.4471     3.6369    10.5406 </r>
       <r>   -11.4362    16.0372    10.7147 </r>
       <r>   -11.4254    10.0551    10.8239 </r>
       <r>   -11.4145     0.8635    10.8332 </r>
       <r>   -11.4037     0.0089    10.8333 </r>
       <r>   -11.3928     0.0000    10.8333 </r>
       <r>   -11.3820     0.0000    10.8333 </r>
       <r>   -11.3711     0.0000    10.8333 </r>
       <r>   -11.3603     0.0121    10.8335 </r>
       <r>   -11.3494     1.0383    10.8447 </r>
       <r>   -11.3386    10.8334    10.9623 </r>
       <r>   -11.3277    15.5784    11.1314 </r>
       <r>   -11.3168     4.1011    11.1760 </r>
       <r>   -11.3060    10.4389    11.2893 </r>
       <r>   -11.2951    15.8648    11.4615 </r>
       <r>   -11.2843     3.4522    11.4990 </r>
       <r>   -11.2734     0.0962    11.5000 </r>
       <r>   -11.2626     0.0003    11.5000 </r>
       <r>   -11.2517     0.0000    11.5000 </r>
       <r>   -11.2409     0.0000    11.5000 </r>
       <r>   -11.2300     0.0000    11.5000 </r>
       <r>   -11.2191     0.0000    11.5000 </r>
       <r>   -11.2083     0.0000    11.5000 </r>
       <r>   -11.1974     0.0000    11.5000 </r>
       <r>   -11.1866     0.0000    11.5000 </r>
       <r>   -11.1757     0.0000    11.5000 </r>
       <r>   -11.1649     0.0000    11.5000 </r>
       <r>   -11.1540     0.0000    11.5000 </r>
       <r>   -11.1432     0.0000    11.5000 </r>
       <r>   -11.1323     0.0000    11.5000 </r>
       <r>   -11.1215     0.0000    11.5000 </r>
       <r>   -11.1106     0.0000    11.5000 </r>
       <r>   -11.0997     0.0000    11.5000 </r>
       <r>   -11.0889     0.0000    11.5000 </r>
       <r>   -11.0780     0.0000    11.5000 </r>
       <r>   -11.0672     0.0002    11.5000 </r>
       <r>   -11.0563     0.0485    11.5005 </r>
       <r>   -11.0455     1.7345    11.5194 </r>
       <r>   -11.0346     7.9405    11.6056 </r>
       <r>   -11.0238     5.1644    11.6616 </r>
       <r>   -11.0129     0.4610    11.6666 </r>
       <r>   -11.0020     0.0050    11.6667 </r>
       <r>   -10.9912     0.0000    11.6667 </r>
       <r>   -10.9803     0.0000    11.6667 </r>
       <r>   -10.9695     0.0000    11.6667 </r>
       <r>   -10.9586     0.0000    11.6667 </r>
       <r>   -10.9478     0.0000    11.6667 </r>
       <r>   -10.9369     0.0000    11.6667 </r>
       <r>   -10.9261     0.0000    11.6667 </r>
       <r>   -10.9152     0.0000    11.6667 </r>
       <r>   -10.9044     0.0000    11.6667 </r>
       <r>   -10.8935     0.0000    11.6667 </r>
       <r>   -10.8826     0.0000    11.6667 </r>
       <r>   -10.8718     0.0000    11.6667 </r>
       <r>   -10.8609     0.0000    11.6667 </r>
       <r>   -10.8501     0.0000    11.6667 </r>
       <r>   -10.8392     0.0000    11.6667 </r>
       <r>   -10.8284     0.0001    11.6667 </r>
       <r>   -10.8175     0.0351    11.6670 </r>
       <r>   -10.8067     1.4529    11.6828 </r>
       <r>   -10.7958     7.6201    11.7655 </r>
       <r>   -10.7849     5.6579    11.8270 </r>
       <r>   -10.7741     0.5806    11.8333 </r>
       <r>   -10.7632     0.0073    11.8333 </r>
       <r>   -10.7524     0.0000    11.8333 </r>
       <r>   -10.7415     0.0000    11.8333 </r>
       <r>   -10.7307     0.0000    11.8333 </r>
       <r>   -10.7198     0.0000    11.8333 </r>
       <r>   -10.7090     0.0000    11.8333 </r>
       <r>   -10.6981     0.0000    11.8333 </r>
       <r>   -10.6873     0.0000    11.8333 </r>
       <r>   -10.6764     0.0000    11.8333 </r>
       <r>   -10.6655     0.0000    11.8333 </r>
       <r>   -10.6547     0.0000    11.8333 </r>
       <r>   -10.6438     0.0211    11.8336 </r>
       <r>   -10.6330     1.0892    11.8454 </r>
       <r>   -10.6221     7.0339    11.9217 </r>
       <r>   -10.6113     6.3877    11.9911 </r>
       <r>   -10.6004     0.8093    11.9999 </r>
       <r>   -10.5896     0.0127    12.0000 </r>
       <r>   -10.5787     0.0000    12.0000 </r>
       <r>   -10.5678     0.0000    12.0000 </r>
       <r>   -10.5570     0.0000    12.0000 </r>
       <r>   -10.5461     0.0000    12.0000 </r>
       <r>   -10.5353     0.0000    12.0000 </r>
       <r>   -10.5244     0.0000    12.0000 </r>
       <r>   -10.5136     0.0000    12.0000 </r>
       <r>   -10.5027     0.0000    12.0000 </r>
       <r>   -10.4919     0.0000    12.0000 </r>
       <r>   -10.4810     0.0000    12.0000 </r>
       <r>   -10.4702     0.0000    12.0000 </r>
       <r>   -10.4593     0.0000    12.0000 </r>
       <r>   -10.4484     0.0000    12.0000 </r>
       <r>   -10.4376     0.0000    12.0000 </r>
       <r>   -10.4267     0.0000    12.0000 </r>
       <r>   -10.4159     0.0000    12.0000 </r>
       <r>   -10.4050     0.0000    12.0000 </r>
       <r>   -10.3942     0.0000    12.0000 </r>
       <r>   -10.3833     0.0000    12.0000 </r>
       <r>   -10.3725     0.0000    12.0000 </r>
       <r>   -10.3616     0.0000    12.0000 </r>
       <r>   -10.3507     0.0000    12.0000 </r>
       <r>   -10.3399     0.0000    12.0000 </r>
       <r>   -10.3290     0.0000    12.0000 </r>
       <r>   -10.3182     0.0000    12.0000 </r>
       <r>   -10.3073     0.0000    12.0000 </r>
       <r>   -10.2965     0.0000    12.0000 </r>
       <r>   -10.2856     0.0000    12.0000 </r>
       <r>   -10.2748     0.0001    12.0000 </r>
       <r>   -10.2639     0.0321    12.0003 </r>
       <r>   -10.2531     1.3802    12.0153 </r>
       <r>   -10.2422     7.5206    12.0970 </r>
       <r>   -10.2313     5.7947    12.1599 </r>
       <r>   -10.2205     0.6182    12.1666 </r>
       <r>   -10.2096     0.0080    12.1667 </r>
       <r>   -10.1988     0.0000    12.1667 </r>
       <r>   -10.1879     0.0069    12.1667 </r>
       <r>   -10.1771     0.5650    12.1729 </r>
       <r>   -10.1662     5.6001    12.2337 </r>
       <r>   -10.1554     7.8481    12.3189 </r>
       <r>   -10.1445     4.9413    12.3725 </r>
       <r>   -10.1336     8.5829    12.4657 </r>
       <r>   -10.1228     3.0216    12.4985 </r>
       <r>   -10.1119     0.1413    12.5000 </r>
       <r>   -10.1011     0.0008    12.5000 </r>
       <r>   -10.0902     0.0000    12.5000 </r>
       <r>   -10.0794     0.0000    12.5000 </r>
       <r>   -10.0685     0.0000    12.5000 </r>
       <r>   -10.0577     0.0000    12.5000 </r>
       <r>   -10.0468     0.0000    12.5000 </r>
       <r>   -10.0360     0.0000    12.5000 </r>
       <r>   -10.0251     0.0000    12.5000 </r>
       <r>   -10.0142     0.0000    12.5000 </r>
       <r>   -10.0034     0.0000    12.5000 </r>
       <r>    -9.9925     0.0000    12.5000 </r>
       <r>    -9.9817     0.0000    12.5000 </r>
       <r>    -9.9708     0.0000    12.5000 </r>
       <r>    -9.9600     0.0000    12.5000 </r>
       <r>    -9.9491     0.0000    12.5000 </r>
       <r>    -9.9383     0.0000    12.5000 </r>
       <r>    -9.9274     0.0000    12.5000 </r>
       <r>    -9.9166     0.0000    12.5000 </r>
       <r>    -9.9057     0.0000    12.5000 </r>
       <r>    -9.8948     0.0000    12.5000 </r>
       <r>    -9.8840     0.0000    12.5000 </r>
       <r>    -9.8731     0.0000    12.5000 </r>
       <r>    -9.8623     0.0000    12.5000 </r>
       <r>    -9.8514     0.0000    12.5000 </r>
       <r>    -9.8406     0.0000    12.5000 </r>
       <r>    -9.8297     0.0000    12.5000 </r>
       <r>    -9.8189     0.0000    12.5000 </r>
       <r>    -9.8080     0.0000    12.5000 </r>
       <r>    -9.7971     0.0000    12.5000 </r>
       <r>    -9.7863     0.0000    12.5000 </r>
       <r>    -9.7754     0.0124    12.5001 </r>
       <r>    -9.7646     1.0544    12.5116 </r>
       <r>    -9.7537    10.8993    12.6299 </r>
       <r>    -9.7429    15.5253    12.7984 </r>
       <r>    -9.7320     3.1357    12.8325 </r>
       <r>    -9.7212     0.0807    12.8333 </r>
       <r>    -9.7103     0.0002    12.8333 </r>
       <r>    -9.6995     0.0000    12.8333 </r>
       <r>    -9.6886     0.0000    12.8333 </r>
       <r>    -9.6777     0.0000    12.8333 </r>
       <r>    -9.6669     0.0000    12.8333 </r>
       <r>    -9.6560     0.0000    12.8333 </r>
       <r>    -9.6452     0.0000    12.8333 </r>
       <r>    -9.6343     0.0000    12.8333 </r>
       <r>    -9.6235     0.0001    12.8333 </r>
       <r>    -9.6126     0.0469    12.8338 </r>
       <r>    -9.6018     2.3141    12.8590 </r>
       <r>    -9.5909    14.3232    13.0144 </r>
       <r>    -9.5800    12.4853    13.1500 </r>
       <r>    -9.5692     1.5156    13.1664 </r>
       <r>    -9.5583     0.0238    13.1667 </r>
       <r>    -9.5475     0.1872    13.1687 </r>
       <r>    -9.5366     3.4621    13.2063 </r>
       <r>    -9.5258     8.5458    13.2991 </r>
       <r>    -9.5149     3.0162    13.3318 </r>
       <r>    -9.5041     0.1705    13.3336 </r>
       <r>    -9.4932     1.7848    13.3530 </r>
       <r>    -9.4824    13.7662    13.5025 </r>
       <r>    -9.4715    22.0537    13.7418 </r>
       <r>    -9.4606    18.7236    13.9451 </r>
       <r>    -9.4498     5.1012    14.0005 </r>
       <r>    -9.4389     5.6131    14.0614 </r>
       <r>    -9.4281    16.9928    14.2459 </r>
       <r>    -9.4172     7.8019    14.3305 </r>
       <r>    -9.4064     4.0395    14.3744 </r>
       <r>    -9.3955     8.5356    14.4670 </r>
       <r>    -9.3847     2.9049    14.4986 </r>
       <r>    -9.3738     0.1305    14.5000 </r>
       <r>    -9.3629     0.0007    14.5000 </r>
       <r>    -9.3521     0.0000    14.5000 </r>
       <r>    -9.3412     0.0000    14.5000 </r>
       <r>    -9.3304     0.0000    14.5000 </r>
       <r>    -9.3195     0.0000    14.5000 </r>
       <r>    -9.3087     0.0000    14.5000 </r>
       <r>    -9.2978     0.0174    14.5002 </r>
       <r>    -9.2870     1.2936    14.5142 </r>
       <r>    -9.2761    11.7878    14.6422 </r>
       <r>    -9.2653    14.8912    14.8038 </r>
       <r>    -9.2544     2.6579    14.8327 </r>
       <r>    -9.2435     0.0599    14.8333 </r>
       <r>    -9.2327     0.0002    14.8333 </r>
       <r>    -9.2218     0.0000    14.8333 </r>
       <r>    -9.2110     0.0016    14.8334 </r>
       <r>    -9.2001     0.2962    14.8366 </r>
       <r>    -9.1893     6.3353    14.9053 </r>
       <r>    -9.1784    20.3181    15.1259 </r>
       <r>    -9.1676    15.3296    15.2923 </r>
       <r>    -9.1567     3.6133    15.3315 </r>
       <r>    -9.1458     0.1669    15.3333 </r>
       <r>    -9.1350     0.0010    15.3333 </r>
       <r>    -9.1241     0.0000    15.3333 </r>
       <r>    -9.1133     0.0000    15.3333 </r>
       <r>    -9.1024     0.0000    15.3333 </r>
       <r>    -9.0916     0.0000    15.3333 </r>
       <r>    -9.0807     0.0000    15.3333 </r>
       <r>    -9.0699     0.0006    15.3333 </r>
       <r>    -9.0590     0.1513    15.3350 </r>
       <r>    -9.0482     4.3971    15.3827 </r>
       <r>    -9.0373    16.5835    15.5627 </r>
       <r>    -9.0264     9.0055    15.6605 </r>
       <r>    -9.0156     3.9134    15.7030 </r>
       <r>    -9.0047    15.6733    15.8731 </r>
       <r>    -8.9939    10.6785    15.9890 </r>
       <r>    -8.9830     1.0014    15.9999 </r>
       <r>    -8.9722     0.0114    16.0000 </r>
       <r>    -8.9613     0.0000    16.0000 </r>
       <r>    -8.9505     0.0000    16.0000 </r>
       <r>    -8.9396     0.0000    16.0000 </r>
       <r>    -8.9287     0.0006    16.0000 </r>
       <r>    -8.9179     0.1219    16.0013 </r>
       <r>    -8.9070     2.9310    16.0331 </r>
       <r>    -8.8962    12.5494    16.1694 </r>
       <r>    -8.8853    20.0512    16.3870 </r>
       <r>    -8.8745     9.6603    16.4919 </r>
       <r>    -8.8636     1.1613    16.5045 </r>
       <r>    -8.8528     5.4808    16.5640 </r>
       <r>    -8.8419    15.2121    16.7291 </r>
       <r>    -8.8311    17.7597    16.9219 </r>
       <r>    -8.8202     6.7175    16.9948 </r>
       <r>    -8.8093     0.4733    17.0000 </r>
       <r>    -8.7985     0.0200    17.0002 </r>
       <r>    -8.7876     1.2079    17.0133 </r>
       <r>    -8.7768    11.4877    17.1380 </r>
       <r>    -8.7659    15.1163    17.3021 </r>
       <r>    -8.7551     2.8147    17.3326 </r>
       <r>    -8.7442     0.2057    17.3349 </r>
       <r>    -8.7334     3.0015    17.3674 </r>
       <r>    -8.7225     8.5444    17.4602 </r>
       <r>    -8.7116     3.4780    17.4979 </r>
       <r>    -8.7008     0.1890    17.5000 </r>
       <r>    -8.6899     0.0070    17.5001 </r>
       <r>    -8.6791     0.6627    17.5073 </r>
       <r>    -8.6682     8.9867    17.6048 </r>
[...]
        <r>  0.0000  0.0036  0.0064  0.0265  0.0000  0.0000  0.0000  0.0000  0.0000 </r>
        <r>  0.0000  0.0173  0.0309  0.0055  0.0000  0.0000  0.0000  0.0000  0.0000 </r>
        <r>  0.0000  0.0036  0.0064  0.0265  0.0000  0.0000  0.0000  0.0000  0.0000 </r>
        <r>  0.0000  0.0173  0.0309  0.0055  0.0000  0.0000  0.0000  0.0000  0.0000 </r>
        <r>  0.0245  0.0034  0.0111  0.0013  0.0000  0.0000  0.0000  0.0000  0.0000 </r>
        <r>  0.0051  0.0007  0.0023  0.0065  0.0000  0.0000  0.0000  0.0000  0.0000 </r>
        <r>  0.0259  0.0057  0.0185  0.0025  0.0000  0.0000  0.0000  0.0000  0.0000 </r>
        <r>  0.0054  0.0012  0.0038  0.0123  0.0000  0.0000  0.0000  0.0000  0.0000 </r>
       </set>
       <set comment="band 25">
        <r>  0.0001  0.0020  0.0009  0.0002  0.0000  0.0000  0.0000  0.0000  0.0000 </r>
        <r>  0.0001  0.0008  0.0003  0.0006  0.0000  0.0000  0.0000  0.0000  0.0000 </r>
        <r>  0.0004  0.0001  0.0017  0.0004  0.0000  0.0000  0.0000  0.0000  0.0000 </r>
        <r>  0.0001  0.0000  0.0007  0.0011  0.0000  0.0000  0.0000  0.0000  0.0000 </r>
        <r>  0.0056  0.0428  0.0062  0.0139  0.0000  0.0000  0.0000  0.0000  0.0000 </r>
        <r>  0.0144  0.1107  0.0159  0.0054  0.0000  0.0000  0.0000  0.0000  0.0000 </r>
        <r>  0.0056  0.0428  0.0062  0.0139  0.0000  0.0000  0.0000  0.0000  0.0000 </r>
        <r>  0.0144  0.1107  0.0159  0.0054  0.0000  0.0000  0.0000  0.0000  0.0000 </r>
        <r>  0.0004  0.0001  0.0017  0.0004  0.0000  0.0000  0.0000  0.0000  0.0000 </r>
        <r>  0.0001  0.0000  0.0007  0.0011  0.0000  0.0000  0.0000  0.0000  0.0000 </r>
        <r>  0.0001  0.0020  0.0009  0.0002  0.0000  0.0000  0.0000  0.0000  0.0000 </r>
        <r>  0.0001  0.0008  0.0003  0.0006  0.0000  0.0000  0.0000  0.0000  0.0000 </r>
       </set>
       <set comment="band 26">
        <r>  0.0001  0.0008  0.0003  0.0006  0.0000  0.0000  0.0000  0.0000  0.0000 </r>
        <r>  0.0001  0.0020  0.0009  0.0002  0.0000  0.0000  0.0000  0.0000  0.0000 </r>
        <r>  0.0001  0.0000  0.0007  0.0011  0.0000  0.0000  0.0000  0.0000  0.0000 </r>
        <r>  0.0004  0.0001  0.0017  0.0004  0.0000  0.0000  0.0000  0.0000  0.0000 </r>
        <r>  0.0144  0.1107  0.0159  0.0054  0.0000  0.0000  0.0000  0.0000  0.0000 </r>
        <r>  0.0056  0.0428  0.0062  0.0139  0.0000  0.0000  0.0000  0.0000  0.0000 </r>
        <r>  0.0144  0.1107  0.0159  0.0054  0.0000  0.0000  0.0000  0.0000  0.0000 </r>
        <r>  0.0056  0.0428  0.0062  0.0139  0.0000  0.0000  0.0000  0.0000  0.0000 </r>
        <r>  0.0001  0.0000  0.0007  0.0011  0.0000  0.0000  0.0000  0.0000  0.0000 </r>
        <r>  0.0004  0.0001  0.0017  0.0004  0.0000  0.0000  0.0000  0.0000  0.0000 </r>
        <r>  0.0001  0.0008  0.0003  0.0006  0.0000  0.0000  0.0000  0.0000  0.0000 </r>
        <r>  0.0001  0.0020  0.0009  0.0002  0.0000  0.0000  0.0000  0.0000  0.0000 </r>
       </set>
       <set comment="band 27">
        <r>  0.0125  0.0778  0.0125  0.0000  0.0000  0.0000  0.0000  0.0000  0.0000 </r>
        <r>  0.0001  0.0004  0.0001  0.0107  0.0000  0.0000  0.0000  0.0000  0.0000 </r>
        <r>  0.0080  0.0776  0.0101  0.0000  0.0000  0.0000  0.0000  0.0000  0.0000 </r>
        <r>  0.0000  0.0004  0.0000  0.0090  0.0000  0.0000  0.0000  0.0000  0.0000 </r>
        <r>  0.0000  0.0000  0.0000  0.0000  0.0000  0.0000  0.0000  0.0000  0.0000 </r>
        <r>  0.0007  0.0021  0.0001  0.0000  0.0000  0.0000  0.0000  0.0000  0.0000 </r>
        <r>  0.0000  0.0000  0.0000  0.0000  0.0000  0.0000  0.0000  0.0000  0.0000 </r>
        <r>  0.0007  0.0021  0.0001  0.0000  0.0000  0.0000  0.0000  0.0000  0.0000 </r>
        <r>  0.0080  0.0776  0.0101  0.0000  0.0000  0.0000  0.0000  0.0000  0.0000 </r>
        <r>  0.0000  0.0004  0.0000  0.0090  0.0000  0.0000  0.0000  0.0000  0.0000 </r>
        <r>  0.0125  0.0778  0.0125  0.0000  0.0000  0.0000  0.0000  0.0000  0.0000 </r>
        <r>  0.0001  0.0004  0.0001  0.0107  0.0000  0.0000  0.0000  0.0000  0.0000 </r>
       </set>
       <set comment="band 28">
        <r>  0.0001  0.0004  0.0001  0.0107  0.0000  0.0000  0.0000  0.0000  0.0000 </r>
        <r>  0.0125  0.0778  0.0125  0.0000  0.0000  0.0000  0.0000  0.0000  0.0000 </r>
        <r>  0.0000  0.0004  0.0000  0.0090  0.0000  0.0000  0.0000  0.0000  0.0000 </r>
        <r>  0.0080  0.0776  0.0101  0.0000  0.0000  0.0000  0.0000  0.0000  0.0000 </r>
        <r>  0.0007  0.0021  0.0001  0.0000  0.0000  0.0000  0.0000  0.0000  0.0000 </r>
        <r>  0.0000  0.0000  0.0000  0.0000  0.0000  0.0000  0.0000  0.0000  0.0000 </r>
        <r>  0.0007  0.0021  0.0001  0.0000  0.0000  0.0000  0.0000  0.0000  0.0000 </r>
        <r>  0.0000  0.0000  0.0000  0.0000  0.0000  0.0000  0.0000  0.0000  0.0000 </r>
        <r>  0.0000  0.0004  0.0000  0.0090  0.0000  0.0000  0.0000  0.0000  0.0000 </r>
        <r>  0.0080  0.0776  0.0101  0.0000  0.0000  0.0000  0.0000  0.0000  0.0000 </r>
        <r>  0.0001  0.0004  0.0001  0.0107  0.0000  0.0000  0.0000  0.0000  0.0000 </r>
        <r>  0.0125  0.0778  0.0125  0.0000  0.0000  0.0000  0.0000  0.0000  0.0000 </r>
       </set>
       <set comment="band 29">
        <r>  0.0023  0.0164  0.0025  0.0084  0.0000  0.0000  0.0000  0.0000  0.0000 </r>
        <r>  0.0091  0.0635  0.0097  0.0022  0.0000  0.0000  0.0000  0.0000  0.0000 </r>
        <r>  0.0021  0.0165  0.0024  0.0080  0.0000  0.0000  0.0000  0.0000  0.0000 </r>
        <r>  0.0083  0.0636  0.0093  0.0021  0.0000  0.0000  0.0000  0.0000  0.0000 </r>
        <r>  0.0000  0.0006  0.0027  0.0004  0.0000  0.0000  0.0000  0.0000  0.0000 </r>
        <r>  0.0000  0.0002  0.0007  0.0017  0.0000  0.0000  0.0000  0.0000  0.0000 </r>
        <r>  0.0000  0.0006  0.0027  0.0004  0.0000  0.0000  0.0000  0.0000  0.0000 </r>
        <r>  0.0000  0.0002  0.0007  0.0017  0.0000  0.0000  0.0000  0.0000  0.0000 </r>
        <r>  0.0021  0.0165  0.0024  0.0080  0.0000  0.0000  0.0000  0.0000  0.0000 </r>
        <r>  0.0083  0.0636  0.0093  0.0021  0.0000  0.0000  0.0000  0.0000  0.0000 </r>
        <r>  0.0023  0.0164  0.0025  0.0084  0.0000  0.0000  0.0000  0.0000  0.0000 </r>
        <r>  0.0091  0.0635  0.0097  0.0022  0.0000  0.0000  0.0000  0.0000  0.0000 </r>
       </set>
       <set comment="band 30">
        <r>  0.0091  0.0635  0.0097  0.0022  0.0000  0.0000  0.0000  0.0000  0.0000 </r>
        <r>  0.0023  0.0164  0.0025  0.0084  0.0000  0.0000  0.0000  0.0000  0.0000 </r>
        <r>  0.0083  0.0636  0.0093  0.0021  0.0000  0.0000  0.0000  0.0000  0.0000 </r>
        <r>  0.0021  0.0165  0.0024  0.0080  0.0000  0.0000  0.0000  0.0000  0.0000 </r>
        <r>  0.0000  0.0002  0.0007  0.0017  0.0000  0.0000  0.0000  0.0000  0.0000 </r>
        <r>  0.0000  0.0006  0.0027  0.0004  0.0000  0.0000  0.0000  0.0000  0.0000 </r>
        <r>  0.0000  0.0002  0.0007  0.0017  0.0000  0.0000  0.0000  0.0000  0.0000 </r>
        <r>  0.0000  0.0006  0.0027  0.0004  0.0000  0.0000  0.0000  0.0000  0.0000 </r>
        <r>  0.0083  0.0636  0.0093  0.0021  0.0000  0.0000  0.0000  0.0000  0.0000 </r>
        <r>  0.0021  0.0165  0.0024  0.0080  0.0000  0.0000  0.0000  0.0000  0.0000 </r>
        <r>  0.0091  0.0635  0.0097  0.0022  0.0000  0.0000  0.0000  0.0000  0.0000 </r>
        <r>  0.0023  0.0164  0.0025  0.0084  0.0000  0.0000  0.0000  0.0000  0.0000 </r>
       </set>
       <set comment="band 31">
        <r>  0.0040  0.0167  0.0012  0.0020  0.0000  0.0000  0.0000  0.0000  0.0000 </r>
        <r>  0.0072  0.0302  0.0022  0.0011  0.0000  0.0000  0.0000  0.0000  0.0000 </r>
        <r>  0.0038  0.0172  0.0005  0.0014  0.0000  0.0000  0.0000  0.0000  0.0000 </r>
        <r>  0.0068  0.0311  0.0009  0.0008  0.0000  0.0000  0.0000  0.0000  0.0000 </r>
        <r>  0.0042  0.0037  0.0006  0.0001  0.0000  0.0000  0.0000  0.0000  0.0000 </r>
        <r>  0.0023  0.0020  0.0003  0.0003  0.0000  0.0000  0.0000  0.0000  0.0000 </r>
        <r>  0.0042  0.0037  0.0006  0.0001  0.0000  0.0000  0.0000  0.0000  0.0000 </r>
        <r>  0.0023  0.0020  0.0003  0.0003  0.0000  0.0000  0.0000  0.0000  0.0000 </r>
        <r>  0.0038  0.0172  0.0005  0.0014  0.0000  0.0000  0.0000  0.0000  0.0000 </r>
        <r>  0.0068  0.0311  0.0009  0.0008  0.0000  0.0000  0.0000  0.0000  0.0000 </r>
        <r>  0.0040  0.0167  0.0012  0.0020  0.0000  0.0000  0.0000  0.0000  0.0000 </r>
        <r>  0.0072  0.0302  0.0022  0.0011  0.0000  0.0000  0.0000  0.0000  0.0000 </r>
       </set>
       <set comment="band 32">
        <r>  0.0072  0.0302  0.0022  0.0011  0.0000  0.0000  0.0000  0.0000  0.0000 </r>
        <r>  0.0040  0.0167  0.0012  0.0020  0.0000  0.0000  0.0000  0.0000  0.0000 </r>
        <r>  0.0068  0.0311  0.0009  0.0008  0.0000  0.0000  0.0000  0.0000  0.0000 </r>
        <r>  0.0038  0.0172  0.0005  0.0014  0.0000  0.0000  0.0000  0.0000  0.0000 </r>
        <r>  0.0023  0.0020  0.0003  0.0003  0.0000  0.0000  0.0000  0.0000  0.0000 </r>
        <r>  0.0042  0.0037  0.0006  0.0001  0.0000  0.0000  0.0000  0.0000  0.0000 </r>
        <r>  0.0023  0.0020  0.0003  0.0003  0.0000  0.0000  0.0000  0.0000  0.0000 </r>
        <r>  0.0042  0.0037  0.0006  0.0001  0.0000  0.0000  0.0000  0.0000  0.0000 </r>
        <r>  0.0068  0.0311  0.0009  0.0008  0.0000  0.0000  0.0000  0.0000  0.0000 </r>
        <r>  0.0038  0.0172  0.0005  0.0014  0.0000  0.0000  0.0000  0.0000  0.0000 </r>
        <r>  0.0072  0.0302  0.0022  0.0011  0.0000  0.0000  0.0000  0.0000  0.0000 </r>
        <r>  0.0040  0.0167  0.0012  0.0020  0.0000  0.0000  0.0000  0.0000  0.0000 </r>
       </set>
       <set comment="band 33">
        <r>  0.0000  0.0018  0.0001  0.0002  0.0000  0.0000  0.0000  0.0000  0.0000 </r>
        <r>  0.0003  0.0124  0.0004  0.0000  0.0000  0.0000  0.0000  0.0000  0.0000 </r>
        <r>  0.0011  0.0000  0.0005  0.0016  0.0000  0.0000  0.0000  0.0000  0.0000 </r>
        <r>  0.0077  0.0001  0.0035  0.0002  0.0000  0.0000  0.0000  0.0000  0.0000 </r>
        <r>  0.0194  0.0852  0.0045  0.0007  0.0000  0.0000  0.0000  0.0000  0.0000 </r>
        <r>  0.0028  0.0121  0.0006  0.0052  0.0000  0.0000  0.0000  0.0000  0.0000 </r>
        <r>  0.0194  0.0852  0.0045  0.0007  0.0000  0.0000  0.0000  0.0000  0.0000 </r>
        <r>  0.0028  0.0121  0.0006  0.0052  0.0000  0.0000  0.0000  0.0000  0.0000 </r>
        <r>  0.0011  0.0000  0.0005  0.0016  0.0000  0.0000  0.0000  0.0000  0.0000 </r>
        <r>  0.0077  0.0001  0.0035  0.0002  0.0000  0.0000  0.0000  0.0000  0.0000 </r>
        <r>  0.0000  0.0018  0.0001  0.0002  0.0000  0.0000  0.0000  0.0000  0.0000 </r>
        <r>  0.0003  0.0124  0.0004  0.0000  0.0000  0.0000  0.0000  0.0000  0.0000 </r>
       </set>
       <set comment="band 34">
        <r>  0.0003  0.0124  0.0004  0.0000  0.0000  0.0000  0.0000  0.0000  0.0000 </r>
        <r>  0.0000  0.0018  0.0001  0.0002  0.0000  0.0000  0.0000  0.0000  0.0000 </r>
        <r>  0.0077  0.0001  0.0035  0.0002  0.0000  0.0000  0.0000  0.0000  0.0000 </r>
        <r>  0.0011  0.0000  0.0005  0.0016  0.0000  0.0000  0.0000  0.0000  0.0000 </r>
        <r>  0.0028  0.0121  0.0006  0.0052  0.0000  0.0000  0.0000  0.0000  0.0000 </r>
        <r>  0.0194  0.0852  0.0045  0.0007  0.0000  0.0000  0.0000  0.0000  0.0000 </r>
        <r>  0.0028  0.0121  0.0006  0.0052  0.0000  0.0000  0.0000  0.0000  0.0000 </r>
        <r>  0.0194  0.0852  0.0045  0.0007  0.0000  0.0000  0.0000  0.0000  0.0000 </r>
        <r>  0.0077  0.0001  0.0035  0.0002  0.0000  0.0000  0.0000  0.0000  0.0000 </r>
        <r>  0.0011  0.0000  0.0005  0.0016  0.0000  0.0000  0.0000  0.0000  0.0000 </r>
        <r>  0.0003  0.0124  0.0004  0.0000  0.0000  0.0000  0.0000  0.0000  0.0000 </r>
        <r>  0.0000  0.0018  0.0001  0.0002  0.0000  0.0000  0.0000  0.0000  0.0000 </r>
       </set>
       <set comment="band 35">
        <r>  0.0061  0.0265  0.0010  0.0014  0.0000  0.0000  0.0000  0.0000  0.0000 </r>
        <r>  0.0066  0.0285  0.0011  0.0013  0.0000  0.0000  0.0000  0.0000  0.0000 </r>
        <r>  0.0063  0.0261  0.0022  0.0021  0.0000  0.0000  0.0000  0.0000  0.0000 </r>
        <r>  0.0068  0.0280  0.0024  0.0019  0.0000  0.0000  0.0000  0.0000  0.0000 </r>
        <r>  0.0014  0.0038  0.0019  0.0007  0.0000  0.0000  0.0000  0.0000  0.0000 </r>
        <r>  0.0013  0.0035  0.0018  0.0008  0.0000  0.0000  0.0000  0.0000  0.0000 </r>
        <r>  0.0014  0.0038  0.0019  0.0007  0.0000  0.0000  0.0000  0.0000  0.0000 </r>
        <r>  0.0013  0.0035  0.0018  0.0008  0.0000  0.0000  0.0000  0.0000  0.0000 </r>
        <r>  0.0063  0.0261  0.0022  0.0021  0.0000  0.0000  0.0000  0.0000  0.0000 </r>
        <r>  0.0068  0.0280  0.0024  0.0019  0.0000  0.0000  0.0000  0.0000  0.0000 </r>
        <r>  0.0061  0.0265  0.0010  0.0014  0.0000  0.0000  0.0000  0.0000  0.0000 </r>
        <r>  0.0066  0.0285  0.0011  0.0013  0.0000  0.0000  0.0000  0.0000  0.0000 </r>
       </set>
       <set comment="band 36">
        <r>  0.0066  0.0285  0.0011  0.0013  0.0000  0.0000  0.0000  0.0000  0.0000 </r>
        <r>  0.0061  0.0265  0.0010  0.0014  0.0000  0.0000  0.0000  0.0000  0.0000 </r>
        <r>  0.0068  0.0280  0.0024  0.0019  0.0000  0.0000  0.0000  0.0000  0.0000 </r>
        <r>  0.0063  0.0261  0.0022  0.0021  0.0000  0.0000  0.0000  0.0000  0.0000 </r>
        <r>  0.0013  0.0035  0.0018  0.0008  0.0000  0.0000  0.0000  0.0000  0.0000 </r>
        <r>  0.0014  0.0038  0.0019  0.0007  0.0000  0.0000  0.0000  0.0000  0.0000 </r>
        <r>  0.0013  0.0035  0.0018  0.0008  0.0000  0.0000  0.0000  0.0000  0.0000 </r>
        <r>  0.0014  0.0038  0.0019  0.0007  0.0000  0.0000  0.0000  0.0000  0.0000 </r>
        <r>  0.0068  0.0280  0.0024  0.0019  0.0000  0.0000  0.0000  0.0000  0.0000 </r>
        <r>  0.0063  0.0261  0.0022  0.0021  0.0000  0.0000  0.0000  0.0000  0.0000 </r>
        <r>  0.0066  0.0285  0.0011  0.0013  0.0000  0.0000  0.0000  0.0000  0.0000 </r>
        <r>  0.0061  0.0265  0.0010  0.0014  0.0000  0.0000  0.0000  0.0000  0.0000 </r>
       </set>
       <set comment="band 37">
        <r>  0.0000  0.0000  0.0007  0.0017  0.0000  0.0000  0.0000  0.0000  0.0000 </r>
        <r>  0.0002  0.0001  0.0037  0.0003  0.0000  0.0000  0.0000  0.0000  0.0000 </r>
        <r>  0.0000  0.0001  0.0012  0.0018  0.0000  0.0000  0.0000  0.0000  0.0000 </r>
        <r>  0.0002  0.0002  0.0042  0.0004  0.0000  0.0000  0.0000  0.0000  0.0000 </r>
        <r>  0.0025  0.0013  0.0612  0.0342  0.0000  0.0000  0.0000  0.0000  0.0000 </r>
        <r>  0.0032  0.0018  0.0757  0.0278  0.0000  0.0000  0.0000  0.0000  0.0000 </r>
        <r>  0.0026  0.0012  0.0628  0.0342  0.0000  0.0000  0.0000  0.0000  0.0000 </r>
        <r>  0.0032  0.0018  0.0760  0.0278  0.0000  0.0000  0.0000  0.0000  0.0000 </r>
        <r>  0.0002  0.0002  0.0039  0.0023  0.0000  0.0000  0.0000  0.0000  0.0000 </r>
        <r>  0.0002  0.0005  0.0043  0.0016  0.0000  0.0000  0.0000  0.0000  0.0000 </r>
        <r>  0.0002  0.0001  0.0033  0.0022  0.0000  0.0000  0.0000  0.0000  0.0000 </r>
        <r>  0.0003  0.0003  0.0048  0.0015  0.0000  0.0000  0.0000  0.0000  0.0000 </r>
       </set>
       <set comment="band 38">
        <r>  0.0004  0.0003  0.0074  0.0066  0.0000  0.0000  0.0000  0.0000  0.0000 </r>
        <r>  0.0008  0.0006  0.0142  0.0034  0.0000  0.0000  0.0000  0.0000  0.0000 </r>
        <r>  0.0004  0.0003  0.0081  0.0069  0.0000  0.0000  0.0000  0.0000  0.0000 </r>
        <r>  0.0006  0.0008  0.0148  0.0037  0.0000  0.0000  0.0000  0.0000  0.0000 </r>
        <r>  0.0026  0.0010  0.0654  0.0226  0.0000  0.0000  0.0000  0.0000  0.0000 </r>
        <r>  0.0022  0.0012  0.0503  0.0291  0.0000  0.0000  0.0000  0.0000  0.0000 </r>
        <r>  0.0026  0.0010  0.0654  0.0226  0.0000  0.0000  0.0000  0.0000  0.0000 </r>
        <r>  0.0021  0.0012  0.0498  0.0292  0.0000  0.0000  0.0000  0.0000  0.0000 </r>
        <r>  0.0004  0.0002  0.0077  0.0029  0.0000  0.0000  0.0000  0.0000  0.0000 </r>
        <r>  0.0002  0.0006  0.0057  0.0033  0.0000  0.0000  0.0000  0.0000  0.0000 </r>
        <r>  0.0003  0.0002  0.0068  0.0028  0.0000  0.0000  0.0000  0.0000  0.0000 </r>
        <r>  0.0004  0.0004  0.0060  0.0031  0.0000  0.0000  0.0000  0.0000  0.0000 </r>
       </set>
       <set comment="band 39">
        <r>  0.0032  0.0022  0.0679  0.0052  0.0000  0.0000  0.0000  0.0000  0.0000 </r>
        <r>  0.0005  0.0003  0.0108  0.0313  0.0000  0.0000  0.0000  0.0000  0.0000 </r>
        <r>  0.0035  0.0019  0.0735  0.0054  0.0000  0.0000  0.0000  0.0000  0.0000 </r>
        <r>  0.0005  0.0003  0.0125  0.0332  0.0000  0.0000  0.0000  0.0000  0.0000 </r>
        <r>  0.0000  0.0001  0.0001  0.0000  0.0000  0.0000  0.0000  0.0000  0.0000 </r>
        <r>  0.0000  0.0001  0.0001  0.0001  0.0000  0.0000  0.0000  0.0000  0.0000 </r>
        <r>  0.0000  0.0001  0.0003  0.0000  0.0000  0.0000  0.0000  0.0000  0.0000 </r>
        <r>  0.0000  0.0000  0.0001  0.0001  0.0000  0.0000  0.0000  0.0000  0.0000 </r>
        <r>  0.0012  0.0007  0.0225  0.0206  0.0000  0.0000  0.0000  0.0000  0.0000 </r>
        <r>  0.0020  0.0011  0.0468  0.0105  0.0000  0.0000  0.0000  0.0000  0.0000 </r>
        <r>  0.0011  0.0009  0.0218  0.0196  0.0000  0.0000  0.0000  0.0000  0.0000 </r>
        <r>  0.0019  0.0012  0.0419  0.0098  0.0000  0.0000  0.0000  0.0000  0.0000 </r>
       </set>
       <set comment="band 40">
        <r>  0.0017  0.0009  0.0378  0.0143  0.0000  0.0000  0.0000  0.0000  0.0000 </r>
        <r>  0.0014  0.0009  0.0306  0.0180  0.0000  0.0000  0.0000  0.0000  0.0000 </r>
        <r>  0.0016  0.0009  0.0439  0.0150  0.0000  0.0000  0.0000  0.0000  0.0000 </r>
        <r>  0.0015  0.0008  0.0339  0.0188  0.0000  0.0000  0.0000  0.0000  0.0000 </r>
        <r>  0.0000  0.0001  0.0001  0.0000  0.0000  0.0000  0.0000  0.0000  0.0000 </r>
        <r>  0.0000  0.0003  0.0002  0.0000  0.0000  0.0000  0.0000  0.0000  0.0000 </r>
        <r>  0.0000  0.0001  0.0001  0.0000  0.0000  0.0000  0.0000  0.0000  0.0000 </r>
        <r>  0.0000  0.0003  0.0002  0.0000  0.0000  0.0000  0.0000  0.0000  0.0000 </r>
        <r>  0.0026  0.0014  0.0649  0.0077  0.0000  0.0000  0.0000  0.0000  0.0000 </r>
        <r>  0.0008  0.0004  0.0173  0.0281  0.0000  0.0000  0.0000  0.0000  0.0000 </r>
        <r>  0.0026  0.0014  0.0567  0.0073  0.0000  0.0000  0.0000  0.0000  0.0000 </r>
        <r>  0.0007  0.0005  0.0156  0.0268  0.0000  0.0000  0.0000  0.0000  0.0000 </r>
       </set>
      </set>
     </set>
    </set>
   </array>
  </projected>
 </calculation>
 <structure name="finalpos" >
  <crystal>
   <varray name="basis" >
    <v>       3.34288600       0.00000000       0.00000000 </v>
    <v>       0.00000000      32.60240900       0.00000000 </v>
    <v>       0.00000000       0.00000000       4.37483100 </v>
   </varray>
   <i name="volume">    476.79592902 </i>
   <varray name="rec_basis" >
    <v>       0.29914272       0.00000000       0.00000000 </v>
    <v>       0.00000000       0.03067258       0.00000000 </v>
    <v>       0.00000000       0.00000000       0.22858026 </v>
   </varray>
  </crystal>
  <varray name="positions" >
   <v>       0.00000000       0.30672600       0.91892400 </v>
   <v>       0.50000000       0.30672600       0.58107600 </v>
   <v>       0.00000000       0.37246700       0.08107600 </v>
   <v>       0.50000000       0.37246700       0.41892400 </v>
   <v>       0.50000000       0.46712900       0.91892400 </v>
   <v>       0.00000000       0.46712900       0.58107600 </v>
   <v>       0.50000000       0.53287100       0.08107600 </v>
   <v>       0.00000000       0.53287100       0.41892400 </v>
   <v>       0.00000000       0.62753300       0.91892400 </v>
   <v>       0.50000000       0.62753300       0.58107600 </v>
   <v>       0.00000000       0.69327400       0.08107600 </v>
   <v>       0.50000000       0.69327400       0.41892400 </v>
  </varray>
 </structure>
</modeling>
