  12  12   1   0
  0.3973299E+02  0.3342886E-09  0.3260241E-08  0.4374831E-09  0.5000000E-15
  1.000000000000000E-004
  CAR 
 Generic Input                           
      5.85740275    -15.83685693 2000      0.94007380      1.00000000
    -15.837  0.0000E+00  0.0000E+00
    -15.826  0.0000E+00  0.0000E+00
    -15.815  0.0000E+00  0.0000E+00
    -15.804  0.0000E+00  0.0000E+00
    -15.793  0.0000E+00  0.0000E+00
    -15.783  0.0000E+00  0.0000E+00
    -15.772  0.0000E+00  0.0000E+00
    -15.761  0.0000E+00  0.0000E+00
    -15.750  0.0000E+00  0.0000E+00
    -15.739  0.0000E+00  0.0000E+00
    -15.728  0.0000E+00  0.0000E+00
    -15.717  0.0000E+00  0.0000E+00
    -15.707  0.0000E+00  0.0000E+00
    -15.696  0.0000E+00  0.0000E+00
    -15.685  0.0000E+00  0.0000E+00
    -15.674  0.0000E+00  0.0000E+00
    -15.663  0.0000E+00  0.0000E+00
    -15.652  0.0000E+00  0.0000E+00
    -15.642  0.0000E+00  0.0000E+00
    -15.631  0.0000E+00  0.0000E+00
    -15.620  0.0000E+00  0.0000E+00
    -15.609  0.0000E+00  0.0000E+00
    -15.598  0.0000E+00  0.0000E+00
    -15.587  0.0000E+00  0.0000E+00
    -15.576  0.0000E+00  0.0000E+00
    -15.566  0.0000E+00  0.0000E+00
    -15.555  0.0000E+00  0.0000E+00
    -15.544  0.0000E+00  0.0000E+00
    -15.533  0.0000E+00  0.0000E+00
    -15.522  0.0000E+00  0.0000E+00
    -15.511  0.0000E+00  0.0000E+00
    -15.500  0.0000E+00  0.0000E+00
    -15.490  0.0000E+00  0.0000E+00
    -15.479  0.0000E+00  0.0000E+00
    -15.468  0.0000E+00  0.0000E+00
    -15.457  0.0000E+00  0.0000E+00
    -15.446  0.0000E+00  0.0000E+00
    -15.435  0.0000E+00  0.0000E+00
    -15.424  0.0000E+00  0.0000E+00
    -15.414  0.0000E+00  0.0000E+00
    -15.403  0.0000E+00  0.0000E+00
    -15.392  0.0000E+00  0.0000E+00
    -15.381  0.0000E+00  0.0000E+00
    -15.370  0.0000E+00  0.0000E+00
    -15.359  0.0000E+00  0.0000E+00
    -15.348  0.0000E+00  0.0000E+00
    -15.338  0.0000E+00  0.0000E+00
    -15.327  0.0000E+00  0.0000E+00
    -15.316  0.0000E+00  0.0000E+00
    -15.305  0.0000E+00  0.0000E+00
    -15.294  0.0000E+00  0.0000E+00
    -15.283  0.0000E+00  0.0000E+00
    -15.273  0.0000E+00  0.0000E+00
    -15.262  0.0000E+00  0.0000E+00
    -15.251  0.0000E+00  0.0000E+00
    -15.240  0.0000E+00  0.0000E+00
    -15.229  0.0000E+00  0.0000E+00
    -15.218  0.0000E+00  0.0000E+00
    -15.207  0.0000E+00  0.0000E+00
    -15.197  0.0000E+00  0.0000E+00
    -15.186  0.0000E+00  0.0000E+00
    -15.175  0.0000E+00  0.0000E+00
    -15.164  0.0000E+00  0.0000E+00
    -15.153  0.0000E+00  0.0000E+00
    -15.142  0.0000E+00  0.0000E+00
    -15.131  0.0000E+00  0.0000E+00
    -15.121  0.0000E+00  0.0000E+00
    -15.110  0.0000E+00  0.0000E+00
    -15.099  0.0000E+00  0.0000E+00
    -15.088  0.0000E+00  0.0000E+00
    -15.077  0.0000E+00  0.0000E+00
    -15.066  0.0000E+00  0.0000E+00
    -15.055  0.0000E+00  0.0000E+00
    -15.045  0.0000E+00  0.0000E+00
    -15.034  0.0000E+00  0.0000E+00
    -15.023  0.0000E+00  0.0000E+00
    -15.012  0.0000E+00  0.0000E+00
    -15.001  0.0000E+00  0.0000E+00
    -14.990  0.0000E+00  0.0000E+00
    -14.980  0.0000E+00  0.0000E+00
    -14.969  0.0000E+00  0.0000E+00
    -14.958  0.0000E+00  0.0000E+00
    -14.947  0.0000E+00  0.0000E+00
    -14.936  0.0000E+00  0.0000E+00
    -14.925  0.0000E+00  0.0000E+00
    -14.914  0.0000E+00  0.0000E+00
    -14.904  0.4808E-12  0.5218E-14
    -14.893  0.1746E-07  0.1895E-09
    -14.882  0.6376E-04  0.6921E-06
    -14.871  0.2431E-01  0.2645E-03
    -14.860  0.1041E+01  0.1156E-01
    -14.849  0.5648E+01  0.7286E-01
    -14.838  0.4337E+01  0.1199E+00
    -14.828  0.4613E+00  0.1249E+00
    -14.817  0.5994E-02  0.1250E+00
    -14.806  0.8534E-05  0.1250E+00
    -14.795  0.1253E-08  0.1250E+00
    -14.784  0.2679E-12  0.1250E+00
    -14.773  0.1032E-07  0.1250E+00
    -14.762  0.4280E-04  0.1250E+00
    -14.752  0.1849E-01  0.1252E+00
    -14.741  0.8923E+00  0.1349E+00
    -14.730  0.5414E+01  0.1936E+00
    -14.719  0.4633E+01  0.2439E+00
    -14.708  0.5520E+00  0.2499E+00
    -14.697  0.8097E-02  0.2500E+00
    -14.686  0.2625E-02  0.2500E+00
    -14.676  0.2775E+00  0.2530E+00
    -14.665  0.3533E+01  0.2914E+00
    -14.654  0.6137E+01  0.3580E+00
    -14.643  0.1519E+01  0.3745E+00
    -14.632  0.4862E-01  0.3750E+00
    -14.621  0.1774E-03  0.3750E+00
    -14.611  0.6813E-07  0.3750E+00
    -14.600  0.2643E-11  0.3750E+00
    -14.589  0.0000E+00  0.3750E+00
    -14.578  0.0000E+00  0.3750E+00
    -14.567  0.0000E+00  0.3750E+00
    -14.556  0.8951E-14  0.3750E+00
    -14.545  0.7910E-09  0.3750E+00
    -14.535  0.7000E-05  0.3750E+00
    -14.524  0.6356E-02  0.3751E+00
    -14.513  0.6267E+00  0.3819E+00
    -14.502  0.7438E+01  0.4626E+00
    -14.491  0.1209E+02  0.5938E+00
    -14.480  0.2796E+01  0.6241E+00
    -14.469  0.8321E-01  0.6250E+00
    -14.459  0.2813E-03  0.6250E+00
    -14.448  0.9994E-07  0.6250E+00
    -14.437  0.1661E-10  0.6250E+00
    -14.426  0.2791E-06  0.6250E+00
    -14.415  0.6051E-03  0.6250E+00
    -14.404  0.1388E+00  0.6265E+00
    -14.393  0.3660E+01  0.6662E+00
    -14.383  0.1261E+02  0.8031E+00
    -14.372  0.6209E+01  0.8705E+00
    -14.361  0.4132E+00  0.8750E+00
    -14.350  0.8461E-02  0.8751E+00
    -14.339  0.5533E+00  0.8811E+00
    -14.328  0.7057E+01  0.9577E+00
    -14.317  0.1228E+02  0.1091E+01
    -14.307  0.3045E+01  0.1124E+01
    -14.296  0.9761E-01  0.1125E+01
    -14.285  0.3567E-03  0.1125E+01
    -14.274  0.1373E-06  0.1125E+01
    -14.263  0.5335E-11  0.1125E+01
    -14.252  0.0000E+00  0.1125E+01
    -14.242  0.0000E+00  0.1125E+01
    -14.231  0.0000E+00  0.1125E+01
    -14.220  0.0000E+00  0.1125E+01
    -14.209  0.0000E+00  0.1125E+01
    -14.198  0.0000E+00  0.1125E+01
    -14.187  0.0000E+00  0.1125E+01
    -14.176  0.2320E-10  0.1125E+01
    -14.166  0.4406E-06  0.1125E+01
    -14.155  0.8487E-03  0.1125E+01
    -14.144  0.1735E+00  0.1127E+01
    -14.133  0.4100E+01  0.1171E+01
    -14.122  0.1275E+02  0.1310E+01
    -14.111  0.5670E+01  0.1371E+01
    -14.100  0.3387E+00  0.1375E+01
    -14.090  0.2386E-02  0.1375E+01
    -14.079  0.1802E-05  0.1375E+01
    -14.068  0.1389E-09  0.1375E+01
    -14.057  0.1985E-09  0.1375E+01
    -14.046  0.2384E-05  0.1375E+01
    -14.035  0.2923E-02  0.1375E+01
    -14.024  0.3855E+00  0.1379E+01
    -14.014  0.6017E+01  0.1445E+01
    -14.003  0.1267E+02  0.1582E+01
    -13.992  0.3812E+01  0.1623E+01
    -13.981  0.1502E+00  0.1625E+01
    -13.970  0.2348E-02  0.1625E+01
    -13.959  0.2690E+00  0.1628E+01
    -13.949  0.5087E+01  0.1683E+01
    -13.938  0.1283E+02  0.1822E+01
    -13.927  0.4628E+01  0.1873E+01
    -13.916  0.2214E+00  0.1875E+01
    -13.905  0.1233E-02  0.1875E+01
    -13.894  0.7309E-06  0.1875E+01
    -13.883  0.4404E-10  0.1875E+01
    -13.873  0.0000E+00  0.1875E+01
    -13.862  0.0000E+00  0.1875E+01
    -13.851  0.0000E+00  0.1875E+01
    -13.840  0.2256E-11  0.1875E+01
    -13.829  0.7936E-07  0.1875E+01
    -13.818  0.2809E-03  0.1875E+01
    -13.807  0.1039E+00  0.1876E+01
    -13.797  0.4320E+01  0.1923E+01
    -13.786  0.2281E+02  0.2171E+01
    -13.775  0.1705E+02  0.2356E+01
    -13.764  0.1764E+01  0.2375E+01
    -13.753  0.2225E-01  0.2375E+01
    -13.742  0.3072E-04  0.2375E+01
    -13.731  0.4372E-08  0.2375E+01
    -13.721  0.2665E-07  0.2375E+01
    -13.710  0.1228E-03  0.2375E+01
    -13.699  0.5877E-01  0.2376E+01
    -13.688  0.3129E+01  0.2410E+01
    -13.677  0.2082E+02  0.2636E+01
    -13.666  0.1947E+02  0.2847E+01
    -13.655  0.2546E+01  0.2875E+01
    -13.645  0.4911E-01  0.2875E+01
    -13.634  0.9309E+00  0.2885E+01
    -13.623  0.1309E+02  0.3027E+01
    -13.612  0.2499E+02  0.3298E+01
    -13.601  0.6808E+01  0.3372E+01
    -13.590  0.2413E+00  0.3375E+01
    -13.580  0.9828E-03  0.3375E+01
    -13.569  0.3106E-02  0.3375E+01
    -13.558  0.4005E+00  0.3379E+01
    -13.547  0.6122E+01  0.3446E+01
    -13.536  0.1264E+02  0.3583E+01
    -13.525  0.3728E+01  0.3623E+01
    -13.514  0.1438E+00  0.3625E+01
    -13.504  0.9282E-03  0.3625E+01
    -13.493  0.8483E-01  0.3626E+01
    -13.482  0.2825E+01  0.3657E+01
    -13.471  0.1211E+02  0.3788E+01
    -13.460  0.7392E+01  0.3868E+01
    -13.449  0.6362E+00  0.3875E+01
    -13.438  0.1208E+01  0.3888E+01
    -13.428  0.9547E+01  0.3992E+01
    -13.417  0.1058E+02  0.4107E+01
    -13.406  0.1652E+01  0.4125E+01
    -13.395  0.3230E-01  0.4125E+01
    -13.384  0.7035E-04  0.4125E+01
    -13.373  0.1594E-07  0.4125E+01
    -13.362  0.3632E-12  0.4125E+01
    -13.352  0.0000E+00  0.4125E+01
    -13.341  0.0000E+00  0.4125E+01
    -13.330  0.0000E+00  0.4125E+01
    -13.319  0.0000E+00  0.4125E+01
    -13.308  0.0000E+00  0.4125E+01
    -13.297  0.0000E+00  0.4125E+01
    -13.287  0.0000E+00  0.4125E+01
    -13.276  0.0000E+00  0.4125E+01
    -13.265  0.0000E+00  0.4125E+01
    -13.254  0.0000E+00  0.4125E+01
    -13.243  0.0000E+00  0.4125E+01
    -13.232  0.0000E+00  0.4125E+01
    -13.221  0.0000E+00  0.4125E+01
    -13.211  0.0000E+00  0.4125E+01
    -13.200  0.0000E+00  0.4125E+01
    -13.189  0.0000E+00  0.4125E+01
    -13.178  0.0000E+00  0.4125E+01
    -13.167  0.0000E+00  0.4125E+01
    -13.156  0.0000E+00  0.4125E+01
    -13.145  0.0000E+00  0.4125E+01
    -13.135  0.0000E+00  0.4125E+01
    -13.124  0.0000E+00  0.4125E+01
    -13.113  0.0000E+00  0.4125E+01
    -13.102  0.0000E+00  0.4125E+01
    -13.091  0.0000E+00  0.4125E+01
    -13.080  0.0000E+00  0.4125E+01
    -13.069  0.0000E+00  0.4125E+01
    -13.059  0.0000E+00  0.4125E+01
    -13.048  0.0000E+00  0.4125E+01
    -13.037  0.0000E+00  0.4125E+01
    -13.026  0.0000E+00  0.4125E+01
    -13.015  0.0000E+00  0.4125E+01
    -13.004  0.0000E+00  0.4125E+01
    -12.993  0.0000E+00  0.4125E+01
    -12.983  0.0000E+00  0.4125E+01
    -12.972  0.0000E+00  0.4125E+01
    -12.961  0.0000E+00  0.4125E+01
    -12.950  0.0000E+00  0.4125E+01
    -12.939  0.0000E+00  0.4125E+01
    -12.928  0.0000E+00  0.4125E+01
    -12.918  0.6974E-11  0.4125E+01
    -12.907  0.1957E-06  0.4125E+01
    -12.896  0.5537E-03  0.4125E+01
    -12.885  0.1646E+00  0.4127E+01
    -12.874  0.5559E+01  0.4187E+01
    -12.863  0.2414E+02  0.4449E+01
    -12.852  0.1493E+02  0.4611E+01
    -12.842  0.1264E+01  0.4625E+01
    -12.831  0.1294E-01  0.4625E+01
    -12.820  0.3587E-01  0.4625E+01
    -12.809  0.2346E+01  0.4651E+01
    -12.798  0.1893E+02  0.4856E+01
    -12.787  0.2131E+02  0.5088E+01
    -12.776  0.3404E+01  0.5125E+01
    -12.766  0.1940E+01  0.5146E+01
    -12.755  0.1745E+02  0.5335E+01
    -12.744  0.2252E+02  0.5579E+01
    -12.733  0.4113E+01  0.5624E+01
    -12.722  0.9512E-01  0.5625E+01
    -12.711  0.2469E-03  0.5625E+01
    -12.700  0.6692E-07  0.5625E+01
    -12.690  0.1821E-11  0.5625E+01
    -12.679  0.0000E+00  0.5625E+01
    -12.668  0.0000E+00  0.5625E+01
    -12.657  0.0000E+00  0.5625E+01
    -12.646  0.6010E-12  0.5625E+01
    -12.635  0.2395E-07  0.5625E+01
    -12.625  0.9586E-04  0.5625E+01
    -12.614  0.3998E-01  0.5625E+01
    -12.603  0.1865E+01  0.5646E+01
    -12.592  0.1097E+02  0.5765E+01
    -12.581  0.9101E+01  0.5863E+01
    -12.570  0.1050E+01  0.5875E+01
    -12.559  0.1488E-01  0.5875E+01
    -12.549  0.2319E-04  0.5875E+01
    -12.538  0.3732E-08  0.5875E+01
    -12.527  0.6138E-13  0.5875E+01
    -12.516  0.1790E-13  0.5875E+01
    -12.505  0.1379E-08  0.5875E+01
    -12.494  0.1076E-04  0.5875E+01
    -12.483  0.8643E-02  0.5875E+01
    -12.473  0.7568E+00  0.5883E+01
    -12.462  0.8031E+01  0.5970E+01
    -12.451  0.1174E+02  0.6098E+01
    -12.440  0.2436E+01  0.6124E+01
    -12.429  0.6473E-01  0.6125E+01
    -12.418  0.5796E-01  0.6126E+01
    -12.407  0.2291E+01  0.6150E+01
    -12.397  0.1157E+02  0.6276E+01
    -12.386  0.8529E+01  0.6369E+01
    -12.375  0.4151E+01  0.6414E+01
    -12.364  0.6234E+01  0.6481E+01
    -12.353  0.1659E+01  0.6499E+01
    -12.342  0.5747E-01  0.6500E+01
    -12.331  0.2278E-03  0.6500E+01
    -12.321  0.9527E-07  0.6500E+01
    -12.310  0.4028E-11  0.6500E+01
    -12.299  0.0000E+00  0.6500E+01
    -12.288  0.0000E+00  0.6500E+01
    -12.277  0.0000E+00  0.6500E+01
    -12.266  0.0000E+00  0.6500E+01
    -12.256  0.0000E+00  0.6500E+01
    -12.245  0.0000E+00  0.6500E+01
    -12.234  0.0000E+00  0.6500E+01
    -12.223  0.0000E+00  0.6500E+01
    -12.212  0.0000E+00  0.6500E+01
    -12.201  0.0000E+00  0.6500E+01
    -12.190  0.0000E+00  0.6500E+01
    -12.180  0.1963E-12  0.6500E+01
    -12.169  0.8508E-08  0.6500E+01
    -12.158  0.3697E-04  0.6500E+01
    -12.147  0.1671E-01  0.6500E+01
    -12.136  0.8423E+00  0.6509E+01
    -12.125  0.5324E+01  0.6567E+01
    -12.114  0.4738E+01  0.6619E+01
    -12.104  0.5883E+00  0.6625E+01
    -12.093  0.9384E-02  0.6625E+01
    -12.082  0.1003E+00  0.6626E+01
    -12.071  0.3089E+01  0.6660E+01
    -12.060  0.1231E+02  0.6793E+01
    -12.049  0.6991E+01  0.6869E+01
    -12.038  0.5413E+00  0.6875E+01
    -12.028  0.5018E-02  0.6875E+01
    -12.017  0.5036E-05  0.6875E+01
    -12.006  0.7856E-09  0.6875E+01
    -11.995  0.3013E-05  0.6875E+01
    -11.984  0.3464E-02  0.6875E+01
    -11.973  0.4296E+00  0.6880E+01
    -11.962  0.6406E+01  0.6949E+01
    -11.952  0.1467E+02  0.7108E+01
    -11.941  0.9963E+01  0.7217E+01
    -11.930  0.2921E+01  0.7248E+01
    -11.919  0.9302E+00  0.7258E+01
    -11.908  0.1078E+02  0.7375E+01
    -11.897  0.3223E+02  0.7725E+01
    -11.887  0.2248E+02  0.7969E+01
    -11.876  0.2807E+01  0.8000E+01
    -11.865  0.9157E+00  0.8010E+01
    -11.854  0.1270E+02  0.8147E+01
    -11.843  0.2513E+02  0.8420E+01
    -11.832  0.7102E+01  0.8497E+01
    -11.821  0.2618E+00  0.8500E+01
    -11.811  0.1138E-02  0.8500E+01
    -11.800  0.2189E-01  0.8500E+01
    -11.789  0.1747E+01  0.8519E+01
    -11.778  0.1713E+02  0.8705E+01
    -11.767  0.2795E+02  0.9008E+01
    -11.756  0.2807E+02  0.9313E+01
    -11.745  0.1596E+02  0.9486E+01
    -11.735  0.8024E+01  0.9573E+01
    -11.724  0.3730E+02  0.9978E+01
    -11.713  0.3975E+02  0.1041E+02
    -11.702  0.8076E+01  0.1050E+02
    -11.691  0.2565E+00  0.1050E+02
    -11.680  0.1011E-02  0.1050E+02
    -11.669  0.4319E-06  0.1050E+02
    -11.659  0.1590E-07  0.1050E+02
    -11.648  0.7016E-04  0.1050E+02
    -11.637  0.3224E-01  0.1050E+02
    -11.626  0.1650E+01  0.1052E+02
    -11.615  0.1058E+02  0.1063E+02
    -11.604  0.9550E+01  0.1074E+02
    -11.594  0.1203E+01  0.1075E+02
    -11.583  0.5381E-01  0.1075E+02
    -11.572  0.1732E+01  0.1077E+02
    -11.561  0.1073E+02  0.1089E+02
    -11.550  0.9376E+01  0.1099E+02
    -11.539  0.1141E+01  0.1100E+02
    -11.528  0.6123E-01  0.1100E+02
    -11.518  0.2649E+01  0.1103E+02
    -11.507  0.1973E+02  0.1124E+02
    -11.496  0.2058E+02  0.1147E+02
    -11.485  0.3014E+01  0.1150E+02
    -11.474  0.5511E-01  0.1150E+02
    -11.463  0.1120E-03  0.1150E+02
    -11.452  0.2363E-07  0.1150E+02
    -11.442  0.5013E-12  0.1150E+02
    -11.431  0.7673E-14  0.1150E+02
    -11.420  0.6669E-09  0.1150E+02
    -11.409  0.6131E-05  0.1150E+02
    -11.398  0.5780E-02  0.1150E+02
    -11.387  0.5910E+00  0.1151E+02
    -11.376  0.7257E+01  0.1159E+02
    -11.366  0.1218E+02  0.1172E+02
    -11.355  0.2912E+01  0.1175E+02
    -11.344  0.8978E-01  0.1175E+02
    -11.333  0.3150E-03  0.1175E+02
    -11.322  0.1162E-06  0.1175E+02
    -11.311  0.4327E-11  0.1175E+02
    -11.300  0.0000E+00  0.1175E+02
    -11.290  0.0000E+00  0.1175E+02
    -11.279  0.0000E+00  0.1175E+02
    -11.268  0.0000E+00  0.1175E+02
    -11.257  0.0000E+00  0.1175E+02
    -11.246  0.9274E-11  0.1175E+02
    -11.235  0.2130E-06  0.1175E+02
    -11.225  0.4951E-03  0.1175E+02
    -11.214  0.1215E+00  0.1175E+02
    -11.203  0.3416E+01  0.1179E+02
    -11.192  0.1250E+02  0.1192E+02
    -11.181  0.6531E+01  0.1199E+02
    -11.170  0.4628E+00  0.1200E+02
    -11.159  0.3906E-02  0.1200E+02
    -11.149  0.3557E-05  0.1200E+02
    -11.138  0.3313E-09  0.1200E+02
    -11.127  0.2558E-14  0.1200E+02
    -11.116  0.0000E+00  0.1200E+02
    -11.105  0.0000E+00  0.1200E+02
    -11.094  0.0000E+00  0.1200E+02
    -11.083  0.0000E+00  0.1200E+02
    -11.073  0.0000E+00  0.1200E+02
    -11.062  0.0000E+00  0.1200E+02
    -11.051  0.0000E+00  0.1200E+02
    -11.040  0.0000E+00  0.1200E+02
    -11.029  0.0000E+00  0.1200E+02
    -11.018  0.0000E+00  0.1200E+02
    -11.007  0.0000E+00  0.1200E+02
    -10.997  0.0000E+00  0.1200E+02
    -10.986  0.0000E+00  0.1200E+02
    -10.975  0.0000E+00  0.1200E+02
    -10.964  0.0000E+00  0.1200E+02
    -10.953  0.0000E+00  0.1200E+02
    -10.942  0.0000E+00  0.1200E+02
    -10.932  0.0000E+00  0.1200E+02
    -10.921  0.0000E+00  0.1200E+02
    -10.910  0.0000E+00  0.1200E+02
    -10.899  0.0000E+00  0.1200E+02
    -10.888  0.0000E+00  0.1200E+02
    -10.877  0.0000E+00  0.1200E+02
    -10.866  0.0000E+00  0.1200E+02
    -10.856  0.0000E+00  0.1200E+02
    -10.845  0.0000E+00  0.1200E+02
    -10.834  0.0000E+00  0.1200E+02
    -10.823  0.0000E+00  0.1200E+02
    -10.812  0.0000E+00  0.1200E+02
    -10.801  0.0000E+00  0.1200E+02
    -10.790  0.0000E+00  0.1200E+02
    -10.780  0.0000E+00  0.1200E+02
    -10.769  0.0000E+00  0.1200E+02
    -10.758  0.0000E+00  0.1200E+02
    -10.747  0.0000E+00  0.1200E+02
    -10.736  0.0000E+00  0.1200E+02
    -10.725  0.0000E+00  0.1200E+02
    -10.714  0.0000E+00  0.1200E+02
    -10.704  0.0000E+00  0.1200E+02
    -10.693  0.0000E+00  0.1200E+02
    -10.682  0.0000E+00  0.1200E+02
    -10.671  0.0000E+00  0.1200E+02
    -10.660  0.0000E+00  0.1200E+02
    -10.649  0.0000E+00  0.1200E+02
    -10.638  0.0000E+00  0.1200E+02
    -10.628  0.0000E+00  0.1200E+02
    -10.617  0.0000E+00  0.1200E+02
    -10.606  0.0000E+00  0.1200E+02
    -10.595  0.0000E+00  0.1200E+02
    -10.584  0.0000E+00  0.1200E+02
    -10.573  0.0000E+00  0.1200E+02
    -10.563  0.0000E+00  0.1200E+02
    -10.552  0.0000E+00  0.1200E+02
    -10.541  0.0000E+00  0.1200E+02
    -10.530  0.0000E+00  0.1200E+02
    -10.519  0.0000E+00  0.1200E+02
    -10.508  0.0000E+00  0.1200E+02
    -10.497  0.0000E+00  0.1200E+02
    -10.487  0.0000E+00  0.1200E+02
    -10.476  0.0000E+00  0.1200E+02
    -10.465  0.0000E+00  0.1200E+02
    -10.454  0.0000E+00  0.1200E+02
    -10.443  0.0000E+00  0.1200E+02
    -10.432  0.0000E+00  0.1200E+02
    -10.421  0.0000E+00  0.1200E+02
    -10.411  0.0000E+00  0.1200E+02
    -10.400  0.0000E+00  0.1200E+02
    -10.389  0.0000E+00  0.1200E+02
    -10.378  0.0000E+00  0.1200E+02
    -10.367  0.0000E+00  0.1200E+02
    -10.356  0.0000E+00  0.1200E+02
    -10.345  0.0000E+00  0.1200E+02
    -10.335  0.0000E+00  0.1200E+02
    -10.324  0.0000E+00  0.1200E+02
    -10.313  0.0000E+00  0.1200E+02
    -10.302  0.0000E+00  0.1200E+02
    -10.291  0.0000E+00  0.1200E+02
    -10.280  0.0000E+00  0.1200E+02
    -10.269  0.0000E+00  0.1200E+02
    -10.259  0.0000E+00  0.1200E+02
    -10.248  0.0000E+00  0.1200E+02
    -10.237  0.0000E+00  0.1200E+02
    -10.226  0.0000E+00  0.1200E+02
    -10.215  0.0000E+00  0.1200E+02
    -10.204  0.0000E+00  0.1200E+02
    -10.194  0.0000E+00  0.1200E+02
    -10.183  0.0000E+00  0.1200E+02
    -10.172  0.0000E+00  0.1200E+02
    -10.161  0.0000E+00  0.1200E+02
    -10.150  0.0000E+00  0.1200E+02
    -10.139  0.0000E+00  0.1200E+02
    -10.128  0.0000E+00  0.1200E+02
    -10.118  0.0000E+00  0.1200E+02
    -10.107  0.0000E+00  0.1200E+02
    -10.096  0.0000E+00  0.1200E+02
    -10.085  0.0000E+00  0.1200E+02
    -10.074  0.0000E+00  0.1200E+02
    -10.063  0.0000E+00  0.1200E+02
    -10.052  0.0000E+00  0.1200E+02
    -10.042  0.0000E+00  0.1200E+02
    -10.031  0.0000E+00  0.1200E+02
    -10.020  0.0000E+00  0.1200E+02
    -10.009  0.0000E+00  0.1200E+02
     -9.998  0.0000E+00  0.1200E+02
     -9.987  0.0000E+00  0.1200E+02
     -9.976  0.0000E+00  0.1200E+02
     -9.966  0.0000E+00  0.1200E+02
     -9.955  0.0000E+00  0.1200E+02
     -9.944  0.0000E+00  0.1200E+02
     -9.933  0.0000E+00  0.1200E+02
     -9.922  0.0000E+00  0.1200E+02
     -9.911  0.0000E+00  0.1200E+02
     -9.901  0.0000E+00  0.1200E+02
     -9.890  0.0000E+00  0.1200E+02
     -9.879  0.0000E+00  0.1200E+02
     -9.868  0.0000E+00  0.1200E+02
     -9.857  0.0000E+00  0.1200E+02
     -9.846  0.0000E+00  0.1200E+02
     -9.835  0.0000E+00  0.1200E+02
     -9.825  0.0000E+00  0.1200E+02
     -9.814  0.0000E+00  0.1200E+02
     -9.803  0.0000E+00  0.1200E+02
     -9.792  0.0000E+00  0.1200E+02
     -9.781  0.0000E+00  0.1200E+02
     -9.770  0.0000E+00  0.1200E+02
     -9.759  0.0000E+00  0.1200E+02
     -9.749  0.0000E+00  0.1200E+02
     -9.738  0.0000E+00  0.1200E+02
     -9.727  0.0000E+00  0.1200E+02
     -9.716  0.0000E+00  0.1200E+02
     -9.705  0.0000E+00  0.1200E+02
     -9.694  0.0000E+00  0.1200E+02
     -9.683  0.0000E+00  0.1200E+02
     -9.673  0.0000E+00  0.1200E+02
     -9.662  0.0000E+00  0.1200E+02
     -9.651  0.0000E+00  0.1200E+02
     -9.640  0.0000E+00  0.1200E+02
     -9.629  0.0000E+00  0.1200E+02
     -9.618  0.0000E+00  0.1200E+02
     -9.607  0.0000E+00  0.1200E+02
     -9.597  0.0000E+00  0.1200E+02
     -9.586  0.0000E+00  0.1200E+02
     -9.575  0.5759E-10  0.1200E+02
     -9.564  0.9029E-06  0.1200E+02
     -9.553  0.1439E-02  0.1200E+02
     -9.542  0.2448E+00  0.1200E+02
     -9.532  0.4861E+01  0.1206E+02
     -9.521  0.1283E+02  0.1219E+02
     -9.510  0.4849E+01  0.1225E+02
     -9.499  0.2436E+00  0.1225E+02
     -9.488  0.1174E-01  0.1225E+02
     -9.477  0.1085E+01  0.1226E+02
     -9.466  0.1389E+02  0.1241E+02
     -9.456  0.2459E+02  0.1268E+02
     -9.445  0.6789E+01  0.1275E+02
     -9.434  0.1162E+02  0.1288E+02
     -9.423  0.3695E+02  0.1328E+02
     -9.412  0.1926E+02  0.1349E+02
     -9.401  0.8077E+01  0.1358E+02
     -9.390  0.1249E+02  0.1371E+02
     -9.380  0.4103E+01  0.1376E+02
     -9.369  0.1128E+02  0.1388E+02
     -9.358  0.2485E+02  0.1415E+02
     -9.347  0.8838E+01  0.1424E+02
     -9.336  0.4645E+00  0.1425E+02
     -9.325  0.3119E-02  0.1425E+02
     -9.314  0.2388E-05  0.1425E+02
     -9.304  0.8504E-04  0.1425E+02
     -9.293  0.4556E-01  0.1425E+02
     -9.282  0.2722E+01  0.1428E+02
     -9.271  0.2167E+02  0.1452E+02
     -9.260  0.3767E+02  0.1492E+02
     -9.249  0.2565E+02  0.1520E+02
     -9.239  0.4288E+01  0.1525E+02
     -9.228  0.1003E+00  0.1525E+02
     -9.217  0.2686E-03  0.1525E+02
     -9.206  0.3289E-02  0.1525E+02
     -9.195  0.5365E+00  0.1526E+02
     -9.184  0.1054E+02  0.1537E+02
     -9.173  0.3186E+02  0.1572E+02
     -9.163  0.2191E+02  0.1595E+02
     -9.152  0.4112E+01  0.1600E+02
     -9.141  0.1419E+00  0.1600E+02
     -9.130  0.8208E-01  0.1600E+02
     -9.119  0.3770E+01  0.1604E+02
     -9.108  0.2200E+02  0.1628E+02
     -9.097  0.1812E+02  0.1648E+02
     -9.087  0.2075E+01  0.1650E+02
     -9.076  0.2917E-01  0.1650E+02
     -9.065  0.4505E-04  0.1650E+02
     -9.054  0.7242E-08  0.1650E+02
     -9.043  0.1093E-05  0.1650E+02
     -9.032  0.2272E-02  0.1650E+02
     -9.021  0.5138E+00  0.1651E+02
     -9.011  0.1377E+02  0.1666E+02
     -9.000  0.4962E+02  0.1719E+02
     -8.989  0.2627E+02  0.1748E+02
     -8.978  0.1947E+01  0.1750E+02
     -8.967  0.1781E-01  0.1750E+02
     -8.956  0.1819E-04  0.1750E+02
     -8.945  0.1955E-08  0.1750E+02
     -8.935  0.1790E-13  0.1750E+02
     -8.924  0.0000E+00  0.1750E+02
     -8.913  0.0000E+00  0.1750E+02
     -8.902  0.1279E-13  0.1750E+02
     -8.891  0.1081E-08  0.1750E+02
     -8.880  0.8914E-05  0.1750E+02
     -8.870  0.7555E-02  0.1750E+02
     -8.859  0.6970E+00  0.1751E+02
     -8.848  0.7770E+01  0.1759E+02
     -8.837  0.1190E+02  0.1772E+02
     -8.826  0.2590E+01  0.1775E+02
     -8.815  0.7226E-01  0.1775E+02
     -8.804  0.2282E-03  0.1775E+02
     -8.794  0.7562E-07  0.1775E+02
     -8.783  0.2527E-11  0.1775E+02
     -8.772  0.4740E-10  0.1775E+02
     -8.761  0.7745E-06  0.1775E+02
     -8.750  0.1286E-02  0.1775E+02
     -8.739  0.2276E+00  0.1775E+02
     -8.728  0.4691E+01  0.1780E+02
     -8.718  0.1283E+02  0.1794E+02
     -8.707  0.5022E+01  0.1800E+02
     -8.696  0.2619E+00  0.1800E+02
     -8.685  0.1598E-02  0.1800E+02
     -8.674  0.1041E-05  0.1800E+02
     -8.663  0.6899E-10  0.1800E+02
     -8.652  0.2544E-11  0.1800E+02
     -8.642  0.6609E-07  0.1800E+02
     -8.631  0.1734E-03  0.1800E+02
     -8.620  0.4789E-01  0.1800E+02
     -8.609  0.1507E+01  0.1802E+02
     -8.598  0.6129E+01  0.1808E+02
     -8.587  0.3669E+01  0.1812E+02
     -8.576  0.3635E+01  0.1816E+02
     -8.566  0.1247E+02  0.1830E+02
     -8.555  0.6616E+01  0.1837E+02
     -8.544  0.4775E+00  0.1837E+02
     -8.533  0.1429E+00  0.1838E+02
     -8.522  0.2582E+01  0.1840E+02
     -8.511  0.6414E+01  0.1847E+02
     -8.501  0.2574E+01  0.1850E+02
     -8.490  0.3741E+01  0.1854E+02
     -8.479  0.6088E+01  0.1861E+02
     -8.468  0.1453E+01  0.1862E+02
     -8.457  0.4470E-01  0.1862E+02
     -8.446  0.1565E-03  0.1862E+02
     -8.435  0.5775E-07  0.1863E+02
     -8.425  0.2053E-05  0.1863E+02
     -8.414  0.3163E-02  0.1863E+02
     -8.403  0.5203E+00  0.1863E+02
     -8.392  0.1001E+02  0.1874E+02
     -8.381  0.2566E+02  0.1902E+02
     -8.370  0.9413E+01  0.1912E+02
     -8.359  0.4582E+00  0.1912E+02
     -8.349  0.2599E-02  0.1912E+02
     -8.338  0.1571E-05  0.1912E+02
     -8.327  0.9650E-10  0.1912E+02
     -8.316  0.0000E+00  0.1912E+02
     -8.305  0.9757E-12  0.1913E+02
     -8.294  0.3532E-07  0.1913E+02
     -8.283  0.1286E-03  0.1913E+02
     -8.273  0.4891E-01  0.1913E+02
     -8.262  0.2089E+01  0.1915E+02
     -8.251  0.1131E+02  0.1927E+02
     -8.240  0.8661E+01  0.1936E+02
     -8.229  0.9190E+00  0.1937E+02
     -8.218  0.1191E-01  0.1937E+02
     -8.208  0.1691E-04  0.1937E+02
     -8.197  0.5094E-08  0.1938E+02
     -8.186  0.2069E-04  0.1938E+02
     -8.175  0.1680E-01  0.1938E+02
     -8.164  0.1487E+01  0.1939E+02
     -8.153  0.1595E+02  0.1956E+02
     -8.142  0.2355E+02  0.1982E+02
     -8.132  0.4937E+01  0.1987E+02
     -8.121  0.1323E+00  0.1987E+02
     -8.110  0.4006E-03  0.1987E+02
     -8.099  0.1271E-06  0.1987E+02
     -8.088  0.4061E-11  0.1988E+02
     -8.077  0.0000E+00  0.1988E+02
     -8.066  0.0000E+00  0.1988E+02
     -8.056  0.0000E+00  0.1988E+02
     -8.045  0.0000E+00  0.1988E+02
     -8.034  0.5882E-13  0.1988E+02
     -8.023  0.3949E-08  0.1988E+02
     -8.012  0.2759E-04  0.1988E+02
     -8.001  0.2099E-01  0.1988E+02
     -7.990  0.1868E+01  0.1990E+02
     -7.980  0.2156E+02  0.2013E+02
     -7.969  0.3622E+02  0.2052E+02
     -7.958  0.9131E+01  0.2062E+02
     -7.947  0.3120E+00  0.2062E+02
     -7.936  0.1265E-02  0.2062E+02
     -7.925  0.5551E-06  0.2062E+02
     -7.914  0.2503E-10  0.2062E+02
     -7.904  0.0000E+00  0.2062E+02
     -7.893  0.0000E+00  0.2062E+02
     -7.882  0.0000E+00  0.2062E+02
     -7.871  0.0000E+00  0.2062E+02
     -7.860  0.0000E+00  0.2062E+02
     -7.849  0.0000E+00  0.2062E+02
     -7.839  0.0000E+00  0.2062E+02
     -7.828  0.0000E+00  0.2062E+02
     -7.817  0.0000E+00  0.2062E+02
     -7.806  0.0000E+00  0.2062E+02
     -7.795  0.0000E+00  0.2062E+02
     -7.784  0.0000E+00  0.2062E+02
     -7.773  0.0000E+00  0.2062E+02
     -7.763  0.0000E+00  0.2062E+02
     -7.752  0.0000E+00  0.2062E+02
     -7.741  0.0000E+00  0.2062E+02
     -7.730  0.0000E+00  0.2062E+02
     -7.719  0.0000E+00  0.2062E+02
     -7.708  0.0000E+00  0.2062E+02
     -7.697  0.0000E+00  0.2062E+02
     -7.687  0.0000E+00  0.2062E+02
     -7.676  0.0000E+00  0.2062E+02
     -7.665  0.0000E+00  0.2062E+02
     -7.654  0.0000E+00  0.2062E+02
     -7.643  0.0000E+00  0.2062E+02
     -7.632  0.0000E+00  0.2062E+02
     -7.621  0.0000E+00  0.2062E+02
     -7.611  0.0000E+00  0.2062E+02
     -7.600  0.0000E+00  0.2062E+02
     -7.589  0.0000E+00  0.2062E+02
     -7.578  0.0000E+00  0.2062E+02
     -7.567  0.0000E+00  0.2062E+02
     -7.556  0.0000E+00  0.2062E+02
     -7.546  0.0000E+00  0.2062E+02
     -7.535  0.0000E+00  0.2062E+02
     -7.524  0.0000E+00  0.2062E+02
     -7.513  0.0000E+00  0.2062E+02
     -7.502  0.0000E+00  0.2062E+02
     -7.491  0.0000E+00  0.2062E+02
     -7.480  0.0000E+00  0.2062E+02
     -7.470  0.0000E+00  0.2062E+02
     -7.459  0.0000E+00  0.2062E+02
     -7.448  0.0000E+00  0.2062E+02
     -7.437  0.0000E+00  0.2062E+02
     -7.426  0.0000E+00  0.2062E+02
     -7.415  0.0000E+00  0.2062E+02
     -7.404  0.0000E+00  0.2062E+02
     -7.394  0.0000E+00  0.2062E+02
     -7.383  0.0000E+00  0.2062E+02
     -7.372  0.0000E+00  0.2062E+02
     -7.361  0.0000E+00  0.2062E+02
     -7.350  0.0000E+00  0.2062E+02
     -7.339  0.0000E+00  0.2062E+02
     -7.328  0.0000E+00  0.2062E+02
     -7.318  0.0000E+00  0.2062E+02
     -7.307  0.0000E+00  0.2062E+02
     -7.296  0.0000E+00  0.2062E+02
     -7.285  0.0000E+00  0.2062E+02
     -7.274  0.0000E+00  0.2062E+02
     -7.263  0.0000E+00  0.2062E+02
     -7.252  0.0000E+00  0.2062E+02
     -7.242  0.0000E+00  0.2062E+02
     -7.231  0.0000E+00  0.2062E+02
     -7.220  0.0000E+00  0.2062E+02
     -7.209  0.0000E+00  0.2062E+02
     -7.198  0.0000E+00  0.2062E+02
     -7.187  0.0000E+00  0.2062E+02
     -7.177  0.0000E+00  0.2062E+02
     -7.166  0.0000E+00  0.2062E+02
     -7.155  0.0000E+00  0.2062E+02
     -7.144  0.0000E+00  0.2062E+02
     -7.133  0.0000E+00  0.2062E+02
     -7.122  0.0000E+00  0.2062E+02
     -7.111  0.0000E+00  0.2062E+02
     -7.101  0.0000E+00  0.2062E+02
     -7.090  0.0000E+00  0.2062E+02
     -7.079  0.0000E+00  0.2062E+02
     -7.068  0.0000E+00  0.2062E+02
     -7.057  0.0000E+00  0.2062E+02
     -7.046  0.0000E+00  0.2062E+02
     -7.035  0.0000E+00  0.2062E+02
     -7.025  0.0000E+00  0.2062E+02
     -7.014  0.0000E+00  0.2062E+02
     -7.003  0.0000E+00  0.2062E+02
     -6.992  0.0000E+00  0.2062E+02
     -6.981  0.0000E+00  0.2062E+02
     -6.970  0.0000E+00  0.2062E+02
     -6.959  0.4345E-10  0.2063E+02
     -6.949  0.7231E-06  0.2063E+02
     -6.938  0.1223E-02  0.2063E+02
     -6.927  0.2202E+00  0.2063E+02
     -6.916  0.4617E+01  0.2068E+02
     -6.905  0.1283E+02  0.2082E+02
     -6.894  0.5214E+01  0.2087E+02
     -6.883  0.4843E+01  0.2093E+02