 vasp.5.4.4.18Apr17-6-g9f103f2a35 (build Jun 20 2017 18:00:50) complex          
  
 executed on             LinuxIFC date 2018.03.16  15:56:25
 running on   32 total cores
 distrk:  each k-point on   32 cores,    1 groups
 distr:  one band on NCORES_PER_BAND=   8 cores,    4 groups


--------------------------------------------------------------------------------------------------------


 INCAR:
 POTCAR:    PAW_PBE P 06Sep2000                   
 POTCAR:    PAW_PBE P 06Sep2000                   
   VRHFIN =P : s2p3                                                             
   LEXCH  = PE                                                                  
   EATOM  =   176.0430 eV,   12.9388 Ry                                         
                                                                                
   TITEL  = PAW_PBE P 06Sep2000                                                 
   LULTRA =        F    use ultrasoft PP ?                                      
   IUNSCR =        1    unscreen: 0-lin 1-nonlin 2-no                           
   RPACOR =    1.500    partial core radius                                     
   POMASS =   30.974; ZVAL   =    5.000    mass and valenz                      
   RCORE  =    1.900    outmost cutoff radius                                   
   RWIGS  =    2.330; RWIGS  =    1.233    wigner-seitz radius (au A)           
   ENMAX  =  255.040; ENMIN  =  191.280 eV                                      
   ICORE  =        2    local potential                                         
   LCOR   =        T    correct aug charges                                     
   LPAW   =        T    paw PP                                                  
   EAUG   =  342.924                                                            
   DEXC   =    0.000                                                            
   RMAX   =    1.935    core radius for proj-oper                               
   RAUG   =    1.300    factor for augmentation sphere                          
   RDEP   =    1.931    radius for radial grids                                 
   RDEPT  =    1.794    core radius for aug-charge                              
                                                                                
   Atomic configuration                                                         
    6 entries                                                                   
     n  l   j            E        occ.                                          
     1  0  0.50     -2084.0982   2.0000                                         
     2  0  0.50      -173.9859   2.0000                                         
     2  1  1.50      -124.4865   6.0000                                         
     3  0  0.50       -13.9692   2.0000                                         
     3  1  0.50        -5.5067   3.0000                                         
     3  2  1.50        -5.4423   0.0000                                         
   Description                                                                  
     l       E           TYP  RCUT    TYP  RCUT                                 
     0    -13.9691527     23  1.900                                             
     0    -11.7794650     23  1.900                                             
     1     -5.5066937     23  1.900                                             
     1     -0.2556953     23  1.900                                             
     2     -5.4423304     23  1.900                                             
  local pseudopotential read in
  partial core-charges read in
  partial kinetic energy density read in
  atomic valenz-charges read in
  non local Contribution for L=           0  read in
    real space projection operators read in
  non local Contribution for L=           0  read in
    real space projection operators read in
  non local Contribution for L=           1  read in
    real space projection operators read in
  non local Contribution for L=           1  read in
    real space projection operators read in
    PAW grid and wavefunctions read in
 
   number of l-projection  operators is LMAX  =           4
   number of lm-projection operators is LMMAX =           8
 
  PAW_PBE P 06Sep2000                   :
 energy of atom  1       EATOM= -176.0430
 kinetic energy error for atom=    0.0023 (will be added to EATOM!!)
 
 
 POSCAR: P12                                     
  positions in direct lattice
  No initial velocities read in
 exchange correlation table for  LEXCH =        8
   RHO(1)=    0.500       N(1)  =     2000
   RHO(2)=  100.500       N(2)  =     4000
 


--------------------------------------------------------------------------------------------------------


 ion  position               nearest neighbor table
   1  0.000  0.307  0.919-   2 2.23   2 2.23   3 2.26
   2  0.500  0.307  0.581-   1 2.23   1 2.23   4 2.26
   3  0.000  0.372  0.081-   4 2.23   4 2.23   1 2.26
   4  0.500  0.372  0.419-   3 2.23   3 2.23   2 2.26
   5  0.500  0.467  0.919-   6 2.23   6 2.23   7 2.26
   6  0.000  0.467  0.581-   5 2.23   5 2.23   8 2.26
   7  0.500  0.533  0.081-   8 2.23   8 2.23   5 2.26
   8  0.000  0.533  0.419-   7 2.23   7 2.23   6 2.26
   9  0.000  0.628  0.919-  10 2.23  10 2.23  11 2.26
  10  0.500  0.628  0.581-   9 2.23   9 2.23  12 2.26
  11  0.000  0.693  0.081-  12 2.23  12 2.23   9 2.26
  12  0.500  0.693  0.419-  11 2.23  11 2.23  10 2.26
 
  LATTYP: Found a simple orthorhombic cell.
 ALAT       =     3.3428860000
 B/A-ratio  =     1.3086988309
 C/A-ratio  =     9.7527732026
  
  Lattice vectors:
  
 A1 = (  -3.3428860000,   0.0000000000,   0.0000000000)
 A2 = (   0.0000000000,   0.0000000000,  -4.3748310000)
 A3 = (   0.0000000000, -32.6024090000,   0.0000000000)


Analysis of symmetry for initial positions (statically):
=====================================================================
 Subroutine PRICEL returns:
 Original cell was already a primitive cell.
 

 Routine SETGRP: Setting up the symmetry group for a 
 simple orthorhombic supercell.


 Subroutine GETGRP returns: Found  8 space group operations
 (whereof  4 operations were pure point group operations)
 out of a pool of  8 trial point group operations.


The static configuration has the point symmetry C_2h.
 The point group associated with its full space group is D_2h.


Analysis of symmetry for dynamics (positions and initial velocities):
=====================================================================
 Subroutine PRICEL returns:
 Original cell was already a primitive cell.
 

 Routine SETGRP: Setting up the symmetry group for a 
 simple orthorhombic supercell.


 Subroutine GETGRP returns: Found  8 space group operations
 (whereof  4 operations were pure point group operations)
 out of a pool of  8 trial point group operations.


The dynamic configuration has the point symmetry C_2h.
 The point group associated with its full space group is D_2h.


 Subroutine INISYM returns: Found  8 space group operations
 (whereof  4 operations are pure point group operations),
 and found     1 'primitive' translations

 
 
 KPOINTS: Automatic mesh                          

Automatic generation of k-mesh.
Space group operators:
 irot       det(A)        alpha          n_x          n_y          n_z        tau_x        tau_y        tau_z
    1     1.000000     0.000001     1.000000     0.000000     0.000000     0.000000     0.000000     0.000000
    2    -1.000000     0.000001     1.000000     0.000000     0.000000     0.000000     0.000000     0.000000
    3     1.000000   179.999999     1.000000     0.000000     0.000000     0.000000     0.000000     0.000000
    4    -1.000000   179.999999     1.000000     0.000000     0.000000     0.000000     0.000000     0.000000
    5     1.000000   179.999999     0.000000     1.000000     0.000000    -0.500000     0.000000    -0.500000
    6    -1.000000   179.999999     0.000000     1.000000     0.000000    -0.500000     0.000000    -0.500000
    7     1.000000   179.999999     0.000000     0.000000     1.000000    -0.500000     0.000000    -0.500000
    8    -1.000000   179.999999     0.000000     0.000000     1.000000    -0.500000     0.000000    -0.500000
 
 Subroutine IBZKPT returns following result:
 ===========================================
 
 Found      9 irreducible k-points:
 
 Following reciprocal coordinates:
            Coordinates               Weight
  0.000000  0.000000  0.000000      1.000000
  0.250000  0.000000  0.000000      2.000000
  0.500000  0.000000  0.000000      1.000000
  0.000000  0.000000  0.250000      2.000000
  0.250000  0.000000  0.250000      4.000000
  0.500000  0.000000  0.250000      2.000000
  0.000000  0.000000  0.500000      1.000000
  0.250000  0.000000  0.500000      2.000000
  0.500000  0.000000  0.500000      1.000000
 
 Following cartesian coordinates:
            Coordinates               Weight
  0.000000  0.000000  0.000000      1.000000
  0.074786  0.000000  0.000000      2.000000
  0.149571  0.000000  0.000000      1.000000
  0.000000  0.000000  0.057145      2.000000
  0.074786  0.000000  0.057145      4.000000
  0.149571  0.000000  0.057145      2.000000
  0.000000  0.000000  0.114290      1.000000
  0.074786  0.000000  0.114290      2.000000
  0.149571  0.000000  0.114290      1.000000
 


--------------------------------------------------------------------------------------------------------




 Dimension of arrays:
   k-points           NKPTS =      9   k-points in BZ     NKDIM =      9   number of bands    NBANDS=     40
   number of dos      NEDOS =   2000   number of ions     NIONS =     12
   non local maximal  LDIM  =      4   non local SUM 2l+1 LMDIM =      8
   total plane-waves  NPLWV =  61440
   max r-space proj   IRMAX =      1   max aug-charges    IRDMAX=   4120
   dimension x,y,z NGX =    16 NGY =  160 NGZ =   24
   dimension x,y,z NGXF=    32 NGYF=  320 NGZF=   48
   support grid    NGXF=    32 NGYF=  320 NGZF=   48
   ions per type =              12
   NGX,Y,Z   is equivalent  to a cutoff of   7.96,  8.16,  9.12 a.u.
   NGXF,Y,Z  is equivalent  to a cutoff of  15.91, 16.32, 18.24 a.u.

 SYSTEM =  Generic Input                           
 POSCAR =  P12                                     

 Startparameter for this run:
   NWRITE =      2    write-flag & timer
   PREC   = normal    normal or accurate (medium, high low for compatibility)
   ISTART =      0    job   : 0-new  1-cont  2-samecut
   ICHARG =      2    charge: 1-file 2-atom 10-const
   ISPIN  =      1    spin polarized calculation?
   LNONCOLLINEAR =      F non collinear calculations
   LSORBIT =      F    spin-orbit coupling
   INIWAV =      1    electr: 0-lowe 1-rand  2-diag
   LASPH  =      T    aspherical Exc in radial PAW
   METAGGA=      F    non-selfconsistent MetaGGA calc.

 Electronic Relaxation 1
   ENCUT  =  400.0 eV  29.40 Ry    5.42 a.u.   5.45 53.17  7.13*2*pi/ulx,y,z
   ENINI  =  400.0     initial cutoff
   ENAUG  =  342.9 eV  augmentation charge cutoff
   NELM   =    200;   NELMIN=  2; NELMDL=  0     # of ELM steps 
   EDIFF  = 0.1E-04   stopping-criterion for ELM
   LREAL  =      F    real-space projection
   NLSPLINE    = F    spline interpolate recip. space projectors
   LCOMPAT=      F    compatible to vasp.4.4
   GGA_COMPAT  = T    GGA compatible to vasp.4.4-vasp.4.6
   LMAXPAW     = -100 max onsite density
   LMAXMIX     =    2 max onsite mixed and CHGCAR
   VOSKOWN=      0    Vosko Wilk Nusair interpolation
   ROPT   =    0.00000
 Ionic relaxation
   EDIFFG = -.2E-01   stopping-criterion for IOM
   NSW    =      0    number of steps for IOM
   NBLOCK =      1;   KBLOCK =      1    inner block; outer block 
   IBRION =     -1    ionic relax: 0-MD 1-quasi-New 2-CG
   NFREE  =      1    steps in history (QN), initial steepest desc. (CG)
   ISIF   =      3    stress and relaxation
   IWAVPR =     11    prediction:  0-non 1-charg 2-wave 3-comb
   ISYM   =      2    0-nonsym 1-usesym 2-fastsym
   LCORR  =      T    Harris-Foulkes like correction to forces

   POTIM  = 0.5000    time-step for ionic-motion
   TEIN   =    0.0    initial temperature
   TEBEG  =    0.0;   TEEND  =   0.0 temperature during run
   SMASS  =  -3.00    Nose mass-parameter (am)
   estimated Nose-frequenzy (Omega)   =  0.10E-29 period in steps =****** mass=  -0.255E-27a.u.
   SCALEE = 1.0000    scale energy and forces
   NPACO  =    256;   APACO  = 16.0  distance and # of slots for P.C.
   PSTRESS=    0.0 pullay stress

  Mass of Ions in am
   POMASS =  30.97
  Ionic Valenz
   ZVAL   =   5.00
  Atomic Wigner-Seitz radii
   RWIGS  =  -1.00
  virtual crystal weights 
   VCA    =   1.00
   NELECT =      60.0000    total number of electrons
   NUPDOWN=      -1.0000    fix difference up-down

 DOS related values:
   EMIN   =  10.00;   EMAX   =-10.00  energy-range for DOS
   EFERMI =   0.00
   ISMEAR =     0;   SIGMA  =   0.01  broadening in eV -4-tet -1-fermi 0-gaus

 Electronic relaxation 2 (details)
   IALGO  =     38    algorithm
   LDIAG  =      T    sub-space diagonalisation (order eigenvalues)
   LSUBROT=      F    optimize rotation matrix (better conditioning)
   TURBO    =      0    0=normal 1=particle mesh
   IRESTART =      0    0=no restart 2=restart with 2 vectors
   NREBOOT  =      0    no. of reboots
   NMIN     =      0    reboot dimension
   EREF     =   0.00    reference energy to select bands
   IMIX   =      4    mixing-type and parameters
     AMIX     =   0.40;   BMIX     =  1.00
     AMIX_MAG =   1.60;   BMIX_MAG =  1.00
     AMIN     =   0.10
     WC   =   100.;   INIMIX=   1;  MIXPRE=   1;  MAXMIX= -45

 Intra band minimization:
   WEIMIN = 0.0000     energy-eigenvalue tresh-hold
   EBREAK =  0.63E-07  absolut break condition
   DEPER  =   0.30     relativ break condition  

   TIME   =   0.40     timestep for ELM

  volume/ion in A,a.u.               =      39.73       268.13
  Fermi-wavevector in a.u.,A,eV,Ry     =   0.820379  1.550291  9.157011  0.673021
  Thomas-Fermi vector in A             =   1.931350
 
 Write flags
   LWAVE        =      T    write WAVECAR
   LDOWNSAMPLE  =      F    k-point downsampling of WAVECAR
   LCHARG       =      T    write CHGCAR
   LVTOT        =      F    write LOCPOT, total local potential
   LVHAR        =      T    write LOCPOT, Hartree potential only
   LELF         =      F    write electronic localiz. function (ELF)
   LORBIT       =     11    0 simple, 1 ext, 2 COOP (PROOUT), +10 PAW based schemes


 Dipole corrections
   LMONO  =      F    monopole corrections only (constant potential shift)
   LDIPOL =      F    correct potential (dipole corrections)
   IDIPOL =      0    1-x, 2-y, 3-z, 4-all directions 
   EPSILON=  1.0000000 bulk dielectric constant

 Core level calculations are selected ICORELEVEL =  1
 Exchange correlation treatment:
   GGA     =    PE    GGA type
   LEXCH   =     8    internal setting for exchange type
   VOSKOWN=      0    Vosko Wilk Nusair interpolation
   LHFCALC =     F    Hartree Fock is set to
   LHFONE  =     F    Hartree Fock one center treatment
   AEXX    =    0.0000 exact exchange contribution

 Linear response parameters
   LEPSILON=     F    determine dielectric tensor
   LRPA    =     F    only Hartree local field effects (RPA)
   LNABLA  =     F    use nabla operator in PAW spheres
   LVEL    =     F    velocity operator in full k-point grid
   LINTERFAST=   F  fast interpolation
   KINTER  =     0    interpolate to denser k-point grid
   CSHIFT  =0.1000    complex shift for real part using Kramers Kronig
   OMEGAMAX=  -1.0    maximum frequency
   DEG_THRESHOLD= 0.2000000E-02 threshold for treating states as degnerate
   RTIME   =   -0.100 relaxation time in fs
  (WPLASMAI=    0.000 imaginary part of plasma frequency in eV, 0.658/RTIME)
   DFIELD  = 0.0000000 0.0000000 0.0000000 field for delta impulse in time
 
 Orbital magnetization related:
   ORBITALMAG=     F  switch on orbital magnetization
   LCHIMAG   =     F  perturbation theory with respect to B field
   DQ        =  0.001000  dq finite difference perturbation B field
   LLRAUG    =     F  two centre corrections for induced B field



--------------------------------------------------------------------------------------------------------


 Static calculation
 charge density and potential will be updated during run
 non-spin polarized calculation
 Variant of blocked Davidson
 Davidson routine will perform the subspace rotation
 perform sub-space diagonalisation
    after iterative eigenvector-optimisation
 modified Broyden-mixing scheme, WC =      100.0
 initial mixing is a Kerker type mixing with AMIX =  0.4000 and BMIX =      1.0000
 Hartree-type preconditioning will be used
 using additional bands           10
 reciprocal scheme for non local part
 use partial core corrections
 calculate Harris-corrections to forces 
   (improved forces if not selfconsistent)
 use gradient corrections 
 use of overlap-Matrix (Vanderbilt PP)
 Gauss-broadening in eV      SIGMA  =   0.01


--------------------------------------------------------------------------------------------------------


  energy-cutoff  :      400.00
  volume of cell :      476.80
      direct lattice vectors                 reciprocal lattice vectors
     3.342886000  0.000000000  0.000000000     0.299142717  0.000000000  0.000000000
     0.000000000 32.602409000  0.000000000     0.000000000  0.030672580  0.000000000
     0.000000000  0.000000000  4.374831000     0.000000000  0.000000000  0.228580258

  length of vectors
     3.342886000 32.602409000  4.374831000     0.299142717  0.030672580  0.228580258


 
 k-points in units of 2pi/SCALE and weight: Automatic mesh                          
   0.00000000  0.00000000  0.00000000       0.062
   0.07478568  0.00000000  0.00000000       0.125
   0.14957136  0.00000000  0.00000000       0.062
   0.00000000  0.00000000  0.05714506       0.125
   0.07478568  0.00000000  0.05714506       0.250
   0.14957136  0.00000000  0.05714506       0.125
   0.00000000  0.00000000  0.11429013       0.062
   0.07478568  0.00000000  0.11429013       0.125
   0.14957136  0.00000000  0.11429013       0.062
 
 k-points in reciprocal lattice and weights: Automatic mesh                          
   0.00000000  0.00000000  0.00000000       0.062
   0.25000000  0.00000000  0.00000000       0.125
   0.50000000  0.00000000  0.00000000       0.062
   0.00000000  0.00000000  0.25000000       0.125
   0.25000000  0.00000000  0.25000000       0.250
   0.50000000  0.00000000  0.25000000       0.125
   0.00000000  0.00000000  0.50000000       0.062
   0.25000000  0.00000000  0.50000000       0.125
   0.50000000  0.00000000  0.50000000       0.062
 
 position of ions in fractional coordinates (direct lattice) 
   0.00000000  0.30672600  0.91892400
   0.50000000  0.30672600  0.58107600
   0.00000000  0.37246700  0.08107600
   0.50000000  0.37246700  0.41892400
   0.50000000  0.46712900  0.91892400
   0.00000000  0.46712900  0.58107600
   0.50000000  0.53287100  0.08107600
   0.00000000  0.53287100  0.41892400
   0.00000000  0.62753300  0.91892400
   0.50000000  0.62753300  0.58107600
   0.00000000  0.69327400  0.08107600
   0.50000000  0.69327400  0.41892400
 
 position of ions in cartesian coordinates  (Angst):
   0.00000000 10.00000650  4.02013720
   1.67144300 10.00000650  2.54210930
   0.00000000 12.14332147  0.35469380
   1.67144300 12.14332147  1.83272170
   1.67144300 15.22953071  4.02013720
   0.00000000 15.22953071  2.54210930
   1.67144300 17.37287829  0.35469380
   0.00000000 17.37287829  1.83272170
   0.00000000 20.45908753  4.02013720
   1.67144300 20.45908753  2.54210930
   0.00000000 22.60240250  0.35469380
   1.67144300 22.60240250  1.83272170
 


--------------------------------------------------------------------------------------------------------


 k-point  1 :   0.0000 0.0000 0.0000  plane waves:    8627
 k-point  2 :   0.2500 0.0000 0.0000  plane waves:    8667
 k-point  3 :   0.5000 0.0000 0.0000  plane waves:    8610
 k-point  4 :   0.0000 0.0000 0.2500  plane waves:    8712
 k-point  5 :   0.2500 0.0000 0.2500  plane waves:    8664
 k-point  6 :   0.5000 0.0000 0.2500  plane waves:    8628
 k-point  7 :   0.0000 0.0000 0.5000  plane waves:    8766
 k-point  8 :   0.2500 0.0000 0.5000  plane waves:    8642
 k-point  9 :   0.5000 0.0000 0.5000  plane waves:    8572

 maximum and minimum number of plane-waves per node :      1109     1062

 maximum number of plane-waves:      8766
 maximum index in each direction: 
   IXMAX=    5   IYMAX=   53   IZMAX=    7
   IXMIN=   -5   IYMIN=  -53   IZMIN=   -7


 parallel 3D FFT for wavefunctions:
    minimum data exchange during FFTs selected (reduces bandwidth)
 parallel 3D FFT for charge:
    minimum data exchange during FFTs selected (reduces bandwidth)


 total amount of memory used by VASP MPI-rank0    34346. kBytes
=======================================================================

   base      :      30000. kBytes
   nonl-proj :        854. kBytes
   fftplans  :        792. kBytes
   grid      :       1070. kBytes
   one-center:          6. kBytes
   wavefun   :       1624. kBytes
 
     INWAV:  cpu time    0.0000: real time    0.0000
 Broyden mixing: mesh for mixing (old mesh)
   NGX = 11   NGY =107   NGZ = 15
  (NGX  = 32   NGY  =320   NGZ  = 48)
  gives a total of  17655 points

 initial charge density was supplied:
 charge density of overlapping atoms calculated
 number of electron      60.0000000 magnetization 
 keeping initial charge density in first step


--------------------------------------------------------------------------------------------------------


 Maximum index for augmentation-charges          313 (set IRDMAX)


--------------------------------------------------------------------------------------------------------


 First call to EWALD:  gamma=   0.227
 Maximum number of real-space cells 6x 1x 5
 Maximum number of reciprocal cells 1x10x 2

    FEWALD:  cpu time    0.0017: real time    0.0017


--------------------------------------- Iteration      1(   1)  ---------------------------------------


    POTLOK:  cpu time    0.0353: real time    0.0372
    SETDIJ:  cpu time    0.0640: real time    0.0640
     EDDAV:  cpu time    0.4041: real time    0.4063
       DOS:  cpu time    0.0004: real time    0.0004
    --------------------------------------------
      LOOP:  cpu time    0.5038: real time    0.5079

 eigenvalue-minimisations  :   720
 total energy-change (2. order) : 0.3416569E+03  (-0.1915182E+04)
 number of electron      60.0000000 magnetization 
 augmentation part       60.0000000 magnetization 

 Free energy of the ion-electron system (eV)
  ---------------------------------------------------
  alpha Z        PSCENC =        30.28014394
  Ewald energy   TEWEN  =     14973.24208224
  -Hartree energ DENC   =    -16928.93300519
  -exchange      EXHF   =         0.00000000
  -V(xc)+E(xc)   XCENC  =        40.33410248
  PAW double counting   =      1677.12035881    -1579.18296132
  entropy T*S    EENTRO =        -0.00000000
  eigenvalues    EBANDS =        16.30757940
  atomic energy  EATOM  =      2112.48864025
  Solvation  Ediel_sol  =         0.00000000
  ---------------------------------------------------
  free energy    TOTEN  =       341.65694060 eV

  energy without entropy =      341.65694060  energy(sigma->0) =      341.65694060


--------------------------------------------------------------------------------------------------------




--------------------------------------- Iteration      1(   2)  ---------------------------------------


     EDDAV:  cpu time    0.4783: real time    0.4801
       DOS:  cpu time    0.0003: real time    0.0003
    --------------------------------------------
      LOOP:  cpu time    0.4786: real time    0.4804

 eigenvalue-minimisations  :  1000
 total energy-change (2. order) :-0.3668353E+03  (-0.3544543E+03)
 number of electron      60.0000000 magnetization 
 augmentation part       60.0000000 magnetization 

 Free energy of the ion-electron system (eV)
  ---------------------------------------------------
  alpha Z        PSCENC =        30.28014394
  Ewald energy   TEWEN  =     14973.24208224
  -Hartree energ DENC   =    -16928.93300519
  -exchange      EXHF   =         0.00000000
  -V(xc)+E(xc)   XCENC  =        40.33410248
  PAW double counting   =      1677.12035881    -1579.18296132
  entropy T*S    EENTRO =        -0.00000000
  eigenvalues    EBANDS =      -350.52775254
  atomic energy  EATOM  =      2112.48864025
  Solvation  Ediel_sol  =         0.00000000
  ---------------------------------------------------
  free energy    TOTEN  =       -25.17839133 eV

  energy without entropy =      -25.17839133  energy(sigma->0) =      -25.17839133


--------------------------------------------------------------------------------------------------------




--------------------------------------- Iteration      1(   3)  ---------------------------------------


     EDDAV:  cpu time    0.4260: real time    0.4281
       DOS:  cpu time    0.0003: real time    0.0003
    --------------------------------------------
      LOOP:  cpu time    0.4263: real time    0.4284

 eigenvalue-minimisations  :   856
 total energy-change (2. order) :-0.3803133E+02  (-0.3736463E+02)
 number of electron      60.0000000 magnetization 
 augmentation part       60.0000000 magnetization 

 Free energy of the ion-electron system (eV)
  ---------------------------------------------------
  alpha Z        PSCENC =        30.28014394
  Ewald energy   TEWEN  =     14973.24208224
  -Hartree energ DENC   =    -16928.93300519
  -exchange      EXHF   =         0.00000000
  -V(xc)+E(xc)   XCENC  =        40.33410248
  PAW double counting   =      1677.12035881    -1579.18296132
  entropy T*S    EENTRO =        -0.00000000
  eigenvalues    EBANDS =      -388.55908451
  atomic energy  EATOM  =      2112.48864025
  Solvation  Ediel_sol  =         0.00000000
  ---------------------------------------------------
  free energy    TOTEN  =       -63.20972331 eV

  energy without entropy =      -63.20972331  energy(sigma->0) =      -63.20972331


--------------------------------------------------------------------------------------------------------




--------------------------------------- Iteration      1(   4)  ---------------------------------------


     EDDAV:  cpu time    0.4860: real time    0.4878
       DOS:  cpu time    0.0003: real time    0.0003
    --------------------------------------------
      LOOP:  cpu time    0.4863: real time    0.4882

 eigenvalue-minimisations  :  1032
 total energy-change (2. order) :-0.1436258E+01  (-0.1427867E+01)
 number of electron      60.0000000 magnetization 
 augmentation part       60.0000000 magnetization 

 Free energy of the ion-electron system (eV)
  ---------------------------------------------------
  alpha Z        PSCENC =        30.28014394
  Ewald energy   TEWEN  =     14973.24208224
  -Hartree energ DENC   =    -16928.93300519
  -exchange      EXHF   =         0.00000000
  -V(xc)+E(xc)   XCENC  =        40.33410248
  PAW double counting   =      1677.12035881    -1579.18296132
  entropy T*S    EENTRO =        -0.00000000
  eigenvalues    EBANDS =      -389.99534270
  atomic energy  EATOM  =      2112.48864025
  Solvation  Ediel_sol  =         0.00000000
  ---------------------------------------------------
  free energy    TOTEN  =       -64.64598149 eV

  energy without entropy =      -64.64598149  energy(sigma->0) =      -64.64598149


--------------------------------------------------------------------------------------------------------




--------------------------------------- Iteration      1(   5)  ---------------------------------------


     EDDAV:  cpu time    0.5090: real time    0.5112
       DOS:  cpu time    0.0004: real time    0.0004
    CHARGE:  cpu time    0.0236: real time    0.0236
    MIXING:  cpu time    0.0007: real time    0.0007
    --------------------------------------------
      LOOP:  cpu time    0.5336: real time    0.5359

 eigenvalue-minimisations  :  1088
 total energy-change (2. order) :-0.4197152E-01  (-0.4192217E-01)
 number of electron      59.9999939 magnetization 
 augmentation part       -6.5193398 magnetization 

 Broyden mixing:
  rms(total) = 0.17543E+01    rms(broyden)= 0.17543E+01
  rms(prec ) = 0.17599E+01
  weight for this iteration     100.00

 Free energy of the ion-electron system (eV)
  ---------------------------------------------------
  alpha Z        PSCENC =        30.28014394
  Ewald energy   TEWEN  =     14973.24208224
  -Hartree energ DENC   =    -16928.93300519
  -exchange      EXHF   =         0.00000000
  -V(xc)+E(xc)   XCENC  =        40.33410248
  PAW double counting   =      1677.12035881    -1579.18296132
  entropy T*S    EENTRO =        -0.00000000
  eigenvalues    EBANDS =      -390.03731422
  atomic energy  EATOM  =      2112.48864025
  Solvation  Ediel_sol  =         0.00000000
  ---------------------------------------------------
  free energy    TOTEN  =       -64.68795301 eV

  energy without entropy =      -64.68795301  energy(sigma->0) =      -64.68795301


--------------------------------------------------------------------------------------------------------




--------------------------------------- Iteration      1(   6)  ---------------------------------------


    POTLOK:  cpu time    0.0127: real time    0.0141
    SETDIJ:  cpu time    0.0642: real time    0.0642
     EDDAV:  cpu time    0.4534: real time    0.4539
       DOS:  cpu time    0.0003: real time    0.0003
    CHARGE:  cpu time    0.0236: real time    0.0236
    MIXING:  cpu time    0.0007: real time    0.0007
    --------------------------------------------
      LOOP:  cpu time    0.5549: real time    0.5567

 eigenvalue-minimisations  :   928
 total energy-change (2. order) : 0.3294565E+00  (-0.2021474E-01)
 number of electron      59.9999939 magnetization 
 augmentation part       -6.4803600 magnetization 

 Broyden mixing:
  rms(total) = 0.10402E+01    rms(broyden)= 0.10402E+01
  rms(prec ) = 0.10434E+01
  weight for this iteration     100.00

 eigenvalues of (default mixing * dielectric matrix)
  average eigenvalue GAMMA=   2.4480
  2.4480

 Free energy of the ion-electron system (eV)
  ---------------------------------------------------
  alpha Z        PSCENC =        30.28014394
  Ewald energy   TEWEN  =     14973.24208224
  -Hartree energ DENC   =    -16941.25024434
  -exchange      EXHF   =         0.00000000
  -V(xc)+E(xc)   XCENC  =        41.37889274
  PAW double counting   =      3129.13888602    -3031.66658187
  entropy T*S    EENTRO =        -0.00000000
  eigenvalues    EBANDS =      -377.97031547
  atomic energy  EATOM  =      2112.48864025
  Solvation  Ediel_sol  =         0.00000000
  ---------------------------------------------------
  free energy    TOTEN  =       -64.35849650 eV

  energy without entropy =      -64.35849650  energy(sigma->0) =      -64.35849650


--------------------------------------------------------------------------------------------------------




--------------------------------------- Iteration      1(   7)  ---------------------------------------


    POTLOK:  cpu time    0.0128: real time    0.0146
    SETDIJ:  cpu time    0.0642: real time    0.0642
     EDDAV:  cpu time    0.4562: real time    0.4568
       DOS:  cpu time    0.0004: real time    0.0004
    CHARGE:  cpu time    0.0230: real time    0.0230
    MIXING:  cpu time    0.0007: real time    0.0007
    --------------------------------------------
      LOOP:  cpu time    0.5573: real time    0.5597

 eigenvalue-minimisations  :   920
 total energy-change (2. order) : 0.1499005E+00  (-0.3656751E-01)
 number of electron      59.9999939 magnetization 
 augmentation part       -6.4332415 magnetization 

 Broyden mixing:
  rms(total) = 0.44442E-01    rms(broyden)= 0.44441E-01
  rms(prec ) = 0.45776E-01
  weight for this iteration     100.00

 eigenvalues of (default mixing * dielectric matrix)
  average eigenvalue GAMMA=   2.0456
  1.5627  2.5285

 Free energy of the ion-electron system (eV)
  ---------------------------------------------------
  alpha Z        PSCENC =        30.28014394
  Ewald energy   TEWEN  =     14973.24208224
  -Hartree energ DENC   =    -16960.01676244
  -exchange      EXHF   =         0.00000000
  -V(xc)+E(xc)   XCENC  =        43.07184952
  PAW double counting   =      6232.81119506    -6135.90822475
  entropy T*S    EENTRO =        -0.00000043
  eigenvalues    EBANDS =      -360.17751943
  atomic energy  EATOM  =      2112.48864025
  Solvation  Ediel_sol  =         0.00000000
  ---------------------------------------------------
  free energy    TOTEN  =       -64.20859604 eV

  energy without entropy =      -64.20859561  energy(sigma->0) =      -64.20859582


--------------------------------------------------------------------------------------------------------




--------------------------------------- Iteration      1(   8)  ---------------------------------------


    POTLOK:  cpu time    0.0127: real time    0.0146
    SETDIJ:  cpu time    0.0643: real time    0.0643
     EDDAV:  cpu time    0.4758: real time    0.4764
       DOS:  cpu time    0.0005: real time    0.0005
    CHARGE:  cpu time    0.0234: real time    0.0234
    MIXING:  cpu time    0.0006: real time    0.0006
    --------------------------------------------
      LOOP:  cpu time    0.5773: real time    0.5797

 eigenvalue-minimisations  :   928
 total energy-change (2. order) : 0.3332748E-03  (-0.3219791E-02)
 number of electron      59.9999939 magnetization 
 augmentation part       -6.4435847 magnetization 

 Broyden mixing:
  rms(total) = 0.23621E-01    rms(broyden)= 0.23620E-01
  rms(prec ) = 0.24306E-01
  weight for this iteration     100.00

 eigenvalues of (default mixing * dielectric matrix)
  average eigenvalue GAMMA=   1.5839
  2.5263  0.9510  1.2744

 Free energy of the ion-electron system (eV)
  ---------------------------------------------------
  alpha Z        PSCENC =        30.28014394
  Ewald energy   TEWEN  =     14973.24208224
  -Hartree energ DENC   =    -16961.21249663
  -exchange      EXHF   =         0.00000000
  -V(xc)+E(xc)   XCENC  =        43.10322563
  PAW double counting   =      6341.98837785    -6245.01355959
  entropy T*S    EENTRO =        -0.00000012
  eigenvalues    EBANDS =      -359.08467634
  atomic energy  EATOM  =      2112.48864025
  Solvation  Ediel_sol  =         0.00000000
  ---------------------------------------------------
  free energy    TOTEN  =       -64.20826277 eV

  energy without entropy =      -64.20826265  energy(sigma->0) =      -64.20826271


--------------------------------------------------------------------------------------------------------




--------------------------------------- Iteration      1(   9)  ---------------------------------------


    POTLOK:  cpu time    0.0126: real time    0.0145
    SETDIJ:  cpu time    0.0642: real time    0.0642
     EDDAV:  cpu time    0.5100: real time    0.5104
       DOS:  cpu time    0.0004: real time    0.0004
    CHARGE:  cpu time    0.0243: real time    0.0243
    MIXING:  cpu time    0.0008: real time    0.0008
    --------------------------------------------
      LOOP:  cpu time    0.6123: real time    0.6147

 eigenvalue-minimisations  :  1080
 total energy-change (2. order) : 0.3461100E-04  (-0.1694900E-03)
 number of electron      59.9999939 magnetization 
 augmentation part       -6.4440559 magnetization 

 Broyden mixing:
  rms(total) = 0.19987E-01    rms(broyden)= 0.19987E-01
  rms(prec ) = 0.20574E-01
  weight for this iteration     100.00

 eigenvalues of (default mixing * dielectric matrix)
  average eigenvalue GAMMA=   1.8110
  2.2297  2.2297  1.3924  1.3924

 Free energy of the ion-electron system (eV)
  ---------------------------------------------------
  alpha Z        PSCENC =        30.28014394
  Ewald energy   TEWEN  =     14973.24208224
  -Hartree energ DENC   =    -16961.97195526
  -exchange      EXHF   =         0.00000000
  -V(xc)+E(xc)   XCENC  =        43.11154029
  PAW double counting   =      6341.40007716    -6244.41769384
  entropy T*S    EENTRO =        -0.00000012
  eigenvalues    EBANDS =      -358.34106281
  atomic energy  EATOM  =      2112.48864025
  Solvation  Ediel_sol  =         0.00000000
  ---------------------------------------------------
  free energy    TOTEN  =       -64.20822815 eV

  energy without entropy =      -64.20822804  energy(sigma->0) =      -64.20822810


--------------------------------------------------------------------------------------------------------




--------------------------------------- Iteration      1(  10)  ---------------------------------------


    POTLOK:  cpu time    0.0127: real time    0.0143
    SETDIJ:  cpu time    0.0642: real time    0.0642
     EDDAV:  cpu time    0.4839: real time    0.4966
       DOS:  cpu time    0.0004: real time    0.0004
    CHARGE:  cpu time    0.0232: real time    0.0232
    MIXING:  cpu time    0.0007: real time    0.0007
    --------------------------------------------
      LOOP:  cpu time    0.5851: real time    0.5994

 eigenvalue-minimisations  :   896
 total energy-change (2. order) : 0.2277996E-03  (-0.3690576E-04)
 number of electron      59.9999939 magnetization 
 augmentation part       -6.4452992 magnetization 

 Broyden mixing:
  rms(total) = 0.15211E-01    rms(broyden)= 0.15211E-01
  rms(prec ) = 0.15681E-01
  weight for this iteration     100.00

 eigenvalues of (default mixing * dielectric matrix)
  average eigenvalue GAMMA=   1.7710
  2.5493  2.5493  1.4624  1.1469  1.1469

 Free energy of the ion-electron system (eV)
  ---------------------------------------------------
  alpha Z        PSCENC =        30.28014394
  Ewald energy   TEWEN  =     14973.24208224
  -Hartree energ DENC   =    -16962.99039532
  -exchange      EXHF   =         0.00000000
  -V(xc)+E(xc)   XCENC  =        43.09543509
  PAW double counting   =      6266.19181855    -6169.18558819
  entropy T*S    EENTRO =        -0.00000007
  eigenvalues    EBANDS =      -357.33013684
  atomic energy  EATOM  =      2112.48864025
  Solvation  Ediel_sol  =         0.00000000
  ---------------------------------------------------
  free energy    TOTEN  =       -64.20800036 eV

  energy without entropy =      -64.20800028  energy(sigma->0) =      -64.20800032


--------------------------------------------------------------------------------------------------------




--------------------------------------- Iteration      1(  11)  ---------------------------------------


    POTLOK:  cpu time    0.0167: real time    0.0210
    SETDIJ:  cpu time    0.0819: real time    0.0826
     EDDAV:  cpu time    0.4611: real time    0.4619
       DOS:  cpu time    0.0004: real time    0.0004
    CHARGE:  cpu time    0.0229: real time    0.0229
    MIXING:  cpu time    0.0007: real time    0.0007
    --------------------------------------------
      LOOP:  cpu time    0.5838: real time    0.5895

 eigenvalue-minimisations  :   936
 total energy-change (2. order) : 0.2508947E-03  (-0.4135634E-04)
 number of electron      59.9999939 magnetization 
 augmentation part       -6.4449195 magnetization 

 Broyden mixing:
  rms(total) = 0.53312E-02    rms(broyden)= 0.53311E-02
  rms(prec ) = 0.58044E-02
  weight for this iteration     100.00

 eigenvalues of (default mixing * dielectric matrix)
  average eigenvalue GAMMA=   1.6890
  2.5629  2.5629  1.4787  1.0594  1.2351  1.2351

 Free energy of the ion-electron system (eV)
  ---------------------------------------------------
  alpha Z        PSCENC =        30.28014394
  Ewald energy   TEWEN  =     14973.24208224
  -Hartree energ DENC   =    -16964.95311101
  -exchange      EXHF   =         0.00000000
  -V(xc)+E(xc)   XCENC  =        43.12784245
  PAW double counting   =      6285.58119114    -6188.56856009
  entropy T*S    EENTRO =        -0.00000009
  eigenvalues    EBANDS =      -355.40597828
  atomic energy  EATOM  =      2112.48864025
  Solvation  Ediel_sol  =         0.00000000
  ---------------------------------------------------
  free energy    TOTEN  =       -64.20774946 eV

  energy without entropy =      -64.20774937  energy(sigma->0) =      -64.20774941


--------------------------------------------------------------------------------------------------------




--------------------------------------- Iteration      1(  12)  ---------------------------------------


    POTLOK:  cpu time    0.0144: real time    0.0146
    SETDIJ:  cpu time    0.0642: real time    0.0642
     EDDAV:  cpu time    0.4353: real time    0.4358
       DOS:  cpu time    0.0004: real time    0.0004
    CHARGE:  cpu time    0.0241: real time    0.0241
    MIXING:  cpu time    0.0008: real time    0.0008
    --------------------------------------------
      LOOP:  cpu time    0.5393: real time    0.5400

 eigenvalue-minimisations  :   872
 total energy-change (2. order) :-0.9706183E-04  (-0.7364966E-05)
 number of electron      59.9999939 magnetization 
 augmentation part       -6.4448216 magnetization 

 Broyden mixing:
  rms(total) = 0.16750E-02    rms(broyden)= 0.16750E-02
  rms(prec ) = 0.23746E-02
  weight for this iteration     100.00

 eigenvalues of (default mixing * dielectric matrix)
  average eigenvalue GAMMA=   1.8011
  3.0911  2.4880  1.6374  1.6374  1.1122  1.3424  1.2994

 Free energy of the ion-electron system (eV)
  ---------------------------------------------------
  alpha Z        PSCENC =        30.28014394
  Ewald energy   TEWEN  =     14973.24208224
  -Hartree energ DENC   =    -16965.81774417
  -exchange      EXHF   =         0.00000000
  -V(xc)+E(xc)   XCENC  =        43.13406734
  PAW double counting   =      6294.40525227    -6197.39274645
  entropy T*S    EENTRO =        -0.00000010
  eigenvalues    EBANDS =      -354.54754183
  atomic energy  EATOM  =      2112.48864025
  Solvation  Ediel_sol  =         0.00000000
  ---------------------------------------------------
  free energy    TOTEN  =       -64.20784652 eV

  energy without entropy =      -64.20784642  energy(sigma->0) =      -64.20784647


--------------------------------------------------------------------------------------------------------




--------------------------------------- Iteration      1(  13)  ---------------------------------------


    POTLOK:  cpu time    0.0133: real time    0.0147
    SETDIJ:  cpu time    0.0670: real time    0.0670
     EDDAV:  cpu time    0.4773: real time    0.4780
       DOS:  cpu time    0.0004: real time    0.0004
    CHARGE:  cpu time    0.0240: real time    0.0240
    MIXING:  cpu time    0.0007: real time    0.0007
    --------------------------------------------
      LOOP:  cpu time    0.5828: real time    0.5850

 eigenvalue-minimisations  :   864
 total energy-change (2. order) :-0.2106901E-03  (-0.8132182E-05)
 number of electron      59.9999939 magnetization 
 augmentation part       -6.4445997 magnetization 

 Broyden mixing:
  rms(total) = 0.51617E-02    rms(broyden)= 0.51617E-02
  rms(prec ) = 0.52403E-02
  weight for this iteration     100.00

 eigenvalues of (default mixing * dielectric matrix)
  average eigenvalue GAMMA=   1.7858
  3.3347  2.4241  2.4241  1.7145  1.1528  1.1528  1.0416  1.0416

 Free energy of the ion-electron system (eV)
  ---------------------------------------------------
  alpha Z        PSCENC =        30.28014394
  Ewald energy   TEWEN  =     14973.24208224
  -Hartree energ DENC   =    -16967.08622093
  -exchange      EXHF   =         0.00000000
  -V(xc)+E(xc)   XCENC  =        43.14427836
  PAW double counting   =      6302.95523283    -6205.94228203
  entropy T*S    EENTRO =        -0.00000011
  eigenvalues    EBANDS =      -353.28993176
  atomic energy  EATOM  =      2112.48864025
  Solvation  Ediel_sol  =         0.00000000
  ---------------------------------------------------
  free energy    TOTEN  =       -64.20805721 eV

  energy without entropy =      -64.20805710  energy(sigma->0) =      -64.20805716


--------------------------------------------------------------------------------------------------------




--------------------------------------- Iteration      1(  14)  ---------------------------------------


    POTLOK:  cpu time    0.0132: real time    0.0147
    SETDIJ:  cpu time    0.0643: real time    0.0643
     EDDAV:  cpu time    0.3587: real time    0.3592
       DOS:  cpu time    0.0004: real time    0.0004
    CHARGE:  cpu time    0.0232: real time    0.0232
    MIXING:  cpu time    0.0008: real time    0.0008
    --------------------------------------------
      LOOP:  cpu time    0.4606: real time    0.4626

 eigenvalue-minimisations  :   656
 total energy-change (2. order) :-0.1159011E-03  (-0.1312469E-05)
 number of electron      59.9999939 magnetization 
 augmentation part       -6.4445343 magnetization 

 Broyden mixing:
  rms(total) = 0.39689E-02    rms(broyden)= 0.39689E-02
  rms(prec ) = 0.40273E-02
  weight for this iteration     100.00

 eigenvalues of (default mixing * dielectric matrix)
  average eigenvalue GAMMA=   1.6619
  3.0506  2.3545  2.3545  1.8108  1.3367  1.3367  1.1011  0.9313  0.6809

 Free energy of the ion-electron system (eV)
  ---------------------------------------------------
  alpha Z        PSCENC =        30.28014394
  Ewald energy   TEWEN  =     14973.24208224
  -Hartree energ DENC   =    -16967.44814774
  -exchange      EXHF   =         0.00000000
  -V(xc)+E(xc)   XCENC  =        43.14532804
  PAW double counting   =      6300.14499550    -6203.13228330
  entropy T*S    EENTRO =        -0.00000012
  eigenvalues    EBANDS =      -352.92893192
  atomic energy  EATOM  =      2112.48864025
  Solvation  Ediel_sol  =         0.00000000
  ---------------------------------------------------
  free energy    TOTEN  =       -64.20817311 eV

  energy without entropy =      -64.20817299  energy(sigma->0) =      -64.20817305


--------------------------------------------------------------------------------------------------------




--------------------------------------- Iteration      1(  15)  ---------------------------------------


    POTLOK:  cpu time    0.0131: real time    0.0147
    SETDIJ:  cpu time    0.0644: real time    0.0644
     EDDAV:  cpu time    0.3443: real time    0.3451
       DOS:  cpu time    0.0004: real time    0.0004
    CHARGE:  cpu time    0.0264: real time    0.0264
    MIXING:  cpu time    0.0008: real time    0.0008
    --------------------------------------------
      LOOP:  cpu time    0.4496: real time    0.4519

 eigenvalue-minimisations  :   608
 total energy-change (2. order) :-0.1099995E-03  (-0.5816147E-06)
 number of electron      59.9999939 magnetization 
 augmentation part       -6.4445178 magnetization 

 Broyden mixing:
  rms(total) = 0.52924E-03    rms(broyden)= 0.52923E-03
  rms(prec ) = 0.76020E-03
  weight for this iteration     100.00

 eigenvalues of (default mixing * dielectric matrix)
  average eigenvalue GAMMA=   2.0678
  6.1961  2.7799  2.2994  2.2994  1.6116  1.2836  1.2836  1.1461  0.8891  0.8891

 Free energy of the ion-electron system (eV)
  ---------------------------------------------------
  alpha Z        PSCENC =        30.28014394
  Ewald energy   TEWEN  =     14973.24208224
  -Hartree energ DENC   =    -16967.60320057
  -exchange      EXHF   =         0.00000000
  -V(xc)+E(xc)   XCENC  =        43.14404184
  PAW double counting   =      6292.33879737    -6195.32621320
  entropy T*S    EENTRO =        -0.00000013
  eigenvalues    EBANDS =      -352.77257485
  atomic energy  EATOM  =      2112.48864025
  Solvation  Ediel_sol  =         0.00000000
  ---------------------------------------------------
  free energy    TOTEN  =       -64.20828311 eV

  energy without entropy =      -64.20828299  energy(sigma->0) =      -64.20828305


--------------------------------------------------------------------------------------------------------




--------------------------------------- Iteration      1(  16)  ---------------------------------------


    POTLOK:  cpu time    0.0133: real time    0.0150
    SETDIJ:  cpu time    0.0644: real time    0.0644
     EDDAV:  cpu time    0.3916: real time    0.3921
       DOS:  cpu time    0.0004: real time    0.0004
    CHARGE:  cpu time    0.0245: real time    0.0245
    MIXING:  cpu time    0.0010: real time    0.0010
    --------------------------------------------
      LOOP:  cpu time    0.4952: real time    0.4974

 eigenvalue-minimisations  :   728
 total energy-change (2. order) :-0.1940841E-03  (-0.2842565E-05)
 number of electron      59.9999939 magnetization 
 augmentation part       -6.4444440 magnetization 

 Broyden mixing:
  rms(total) = 0.33306E-02    rms(broyden)= 0.33306E-02
  rms(prec ) = 0.33372E-02
  weight for this iteration     100.00

 eigenvalues of (default mixing * dielectric matrix)
  average eigenvalue GAMMA=   1.9238
  6.2804  2.7419  2.1516  2.1516  1.8717  1.2898  1.2898  1.1206  0.8427  0.7107
  0.7107

 Free energy of the ion-electron system (eV)
  ---------------------------------------------------
  alpha Z        PSCENC =        30.28014394
  Ewald energy   TEWEN  =     14973.24208224
  -Hartree energ DENC   =    -16968.28282079
  -exchange      EXHF   =         0.00000000
  -V(xc)+E(xc)   XCENC  =        43.14493119
  PAW double counting   =      6285.31438144    -6188.30123162
  entropy T*S    EENTRO =        -0.00000013
  eigenvalues    EBANDS =      -352.09460371
  atomic energy  EATOM  =      2112.48864025
  Solvation  Ediel_sol  =         0.00000000
  ---------------------------------------------------
  free energy    TOTEN  =       -64.20847720 eV

  energy without entropy =      -64.20847707  energy(sigma->0) =      -64.20847713


--------------------------------------------------------------------------------------------------------




--------------------------------------- Iteration      1(  17)  ---------------------------------------


    POTLOK:  cpu time    0.0136: real time    0.0152
    SETDIJ:  cpu time    0.0648: real time    0.0648
     EDDAV:  cpu time    0.3413: real time    0.3419
       DOS:  cpu time    0.0004: real time    0.0004
    --------------------------------------------
      LOOP:  cpu time    0.5028: real time    0.5051

 eigenvalue-minimisations  :   568
 total energy-change (2. order) :-0.7905709E-05  (-0.1284530E-06)
 number of electron      59.9999939 magnetization 
 augmentation part       -6.4444440 magnetization 

 Free energy of the ion-electron system (eV)
  ---------------------------------------------------
  alpha Z        PSCENC =        30.28014394
  Ewald energy   TEWEN  =     14973.24208224
  -Hartree energ DENC   =    -16968.30787564
  -exchange      EXHF   =         0.00000000
  -V(xc)+E(xc)   XCENC  =        43.14527437
  PAW double counting   =      6287.21131538    -6190.19815786
  entropy T*S    EENTRO =        -0.00000013
  eigenvalues    EBANDS =      -352.06990765
  atomic energy  EATOM  =      2112.48864025
  Solvation  Ediel_sol  =         0.00000000
  ---------------------------------------------------
  free energy    TOTEN  =       -64.20848510 eV

  energy without entropy =      -64.20848498  energy(sigma->0) =      -64.20848504


--------------------------------------------------------------------------------------------------------




 the core state eigenenergies are
   1-  1s  -2078.3811  2s   -168.4139  2p   -118.8993
   2-  1s  -2078.3811  2s   -168.4139  2p   -118.8993
   3-  1s  -2078.4403  2s   -168.4672  2p   -118.9532
   4-  1s  -2078.4403  2s   -168.4672  2p   -118.9532
   5-  1s  -2078.4690  2s   -168.4969  2p   -118.9828
   6-  1s  -2078.4690  2s   -168.4969  2p   -118.9828
   7-  1s  -2078.4690  2s   -168.4969  2p   -118.9828
   8-  1s  -2078.4690  2s   -168.4969  2p   -118.9828
   9-  1s  -2078.4403  2s   -168.4672  2p   -118.9532
  10-  1s  -2078.4403  2s   -168.4672  2p   -118.9532
  11-  1s  -2078.3811  2s   -168.4139  2p   -118.8993
  12-  1s  -2078.3811  2s   -168.4139  2p   -118.8993
 
 E-fermi :   0.9401     XC(G=0):  -5.1415     alpha+bet : -5.5572


 k-point     1 :       0.0000    0.0000    0.0000
  band No.  band energies     occupation 
      1     -14.8508      2.00000
      2     -14.7308      2.00000
      3     -14.6617      2.00000
      4     -12.3714      2.00000
      5     -12.1259      2.00000
      6     -11.9454      2.00000
      7      -8.6013      2.00000
      8      -8.5172      2.00000
      9      -8.4868      2.00000
     10      -5.9229      2.00000
     11      -5.5444      2.00000
     12      -5.1254      2.00000
     13      -4.5040      2.00000
     14      -4.5037      2.00000
     15      -4.1862      2.00000
     16      -4.1415      2.00000
     17      -3.9944      2.00000
     18      -3.9201      2.00000
     19      -3.3894      2.00000
     20      -3.2891      2.00000
     21      -3.2389      2.00000
     22      -1.8796      2.00000
     23      -1.7326      2.00000
     24      -1.6246      2.00000
     25      -1.5861      2.00000
     26      -1.5005      2.00000
     27      -1.1080      2.00000
     28      -0.2487      2.00000
     29       0.3552      2.00000
     30       0.9107      1.99997
     31       0.9694      0.00003
     32       1.4970      0.00000
     33       1.5245      0.00000
     34       1.6980      0.00000
     35       1.7060      0.00000
     36       1.8623      0.00000
     37       2.7312      0.00000
     38       2.9011      0.00000
     39       2.9726      0.00000
     40       3.7174      0.00000

 k-point     2 :       0.2500    0.0000    0.0000
  band No.  band energies     occupation 
      1     -14.1267      2.00000
      2     -14.0095      2.00000
      3     -13.9433      2.00000
      4     -11.6158      2.00000
      5     -11.3736      2.00000
      6     -11.1956      2.00000
      7      -9.4245      2.00000
      8      -9.3659      2.00000
      9      -9.3621      2.00000
     10      -6.0172      2.00000
     11      -5.8715      2.00000
     12      -5.7782      2.00000
     13      -5.3275      2.00000
     14      -4.9703      2.00000
     15      -4.8584      2.00000
     16      -4.8111      2.00000
     17      -4.7931      2.00000
     18      -4.6106      2.00000
     19      -3.8734      2.00000
     20      -3.5552      2.00000
     21      -3.4176      2.00000
     22      -2.8477      2.00000
     23      -2.5690      2.00000
     24      -2.3112      2.00000
     25      -1.6767      2.00000
     26      -1.3946      2.00000
     27      -0.9433      2.00000
     28      -0.3757      2.00000
     29      -0.1901      2.00000
     30      -0.1348      2.00000
     31       1.3074      0.00000
     32       1.3883      0.00000
     33       1.7201      0.00000
     34       1.7430      0.00000
     35       2.3160      0.00000
     36       2.5013      0.00000
     37       3.2834      0.00000
     38       3.5831      0.00000
     39       3.6253      0.00000
     40       3.6602      0.00000

 k-point     3 :       0.5000    0.0000    0.0000
  band No.  band energies     occupation 
      1     -12.0633      2.00000
      2     -12.0633      2.00000
      3     -11.9586      2.00000
      4     -11.9586      2.00000
      5     -11.9059      2.00000
      6     -11.9059      2.00000
      7      -9.3978      2.00000
      8      -9.3978      2.00000
      9      -9.1694      2.00000
     10      -9.1694      2.00000
     11      -9.0026      2.00000
     12      -9.0026      2.00000
     13      -4.4656      2.00000
     14      -4.4656      2.00000
     15      -4.3314      2.00000
     16      -4.3314      2.00000
     17      -4.2855      2.00000
     18      -4.2855      2.00000
     19      -2.4657      2.00000
     20      -2.4657      2.00000
     21      -2.3920      2.00000
     22      -2.3920      2.00000
     23      -2.3917      2.00000
     24      -2.3917      2.00000
     25      -2.0095      2.00000
     26      -2.0095      2.00000
     27      -1.7392      2.00000
     28      -1.7392      2.00000
     29      -1.4871      2.00000
     30      -1.4871      2.00000
     31       1.6216      0.00000
     32       1.6216      0.00000
     33       1.6336      0.00000
     34       1.6336      0.00000
     35       1.7159      0.00000
     36       1.7159      0.00000
     37       2.1558      0.00000
     38       2.1561      0.00000
     39       2.1927      0.00000
     40       2.1930      0.00000

 k-point     4 :       0.0000    0.0000    0.2500
  band No.  band energies     occupation 
      1     -14.4993      2.00000
      2     -14.3866      2.00000
      3     -14.3253      2.00000
      4     -12.5930      2.00000
      5     -12.4596      2.00000
      6     -12.3985      2.00000
      7      -9.0022      2.00000
      8      -8.8454      2.00000
      9      -8.7228      2.00000
     10      -6.9104      2.00000
     11      -6.6374      2.00000
     12      -6.4690      2.00000
     13      -4.5484      2.00000
     14      -4.0370      2.00000
     15      -3.3745      2.00000
     16      -3.1122      2.00000
     17      -3.0612      2.00000
     18      -3.0203      2.00000
     19      -2.9791      2.00000
     20      -2.7161      2.00000
     21      -2.7152      2.00000
     22      -1.8607      2.00000
     23      -1.7608      2.00000
     24      -1.7331      2.00000
     25      -1.7218      2.00000
     26      -1.0744      2.00000
     27      -0.4249      2.00000
     28      -0.2660      2.00000
     29      -0.2036      2.00000
     30      -0.0262      2.00000
     31       1.6797      0.00000
     32       2.0068      0.00000
     33       2.1159      0.00000
     34       2.2090      0.00000
     35       2.2583      0.00000
     36       2.2613      0.00000
     37       2.3700      0.00000
     38       2.7093      0.00000
     39       3.2523      0.00000
     40       3.3313      0.00000

 k-point     5 :       0.2500    0.0000    0.2500
  band No.  band energies     occupation 
      1     -13.7874      2.00000
      2     -13.6776      2.00000
      3     -13.6193      2.00000
      4     -11.8975      2.00000
      5     -11.7763      2.00000
      6     -11.7265      2.00000
      7      -9.2587      2.00000
      8      -9.1094      2.00000
      9      -9.0043      2.00000
     10      -6.8745      2.00000
     11      -6.7464      2.00000
     12      -6.6861      2.00000
     13      -5.6596      2.00000
     14      -5.4928      2.00000
     15      -5.3793      2.00000
     16      -4.8167      2.00000
     17      -4.5966      2.00000
     18      -4.5647      2.00000
     19      -3.4961      2.00000
     20      -3.2711      2.00000
     21      -2.9263      2.00000
     22      -2.2264      2.00000
     23      -2.1965      2.00000
     24      -2.1215      2.00000
     25      -1.6134      2.00000
     26      -1.4371      2.00000
     27      -1.1876      2.00000
     28      -1.0882      2.00000
     29      -0.7085      2.00000
     30      -0.4742      2.00000
     31       2.0226      0.00000
     32       2.1483      0.00000
     33       2.3107      0.00000
     34       2.5731      0.00000
     35       2.7825      0.00000
     36       2.8631      0.00000
     37       2.9227      0.00000
     38       3.1770      0.00000
     39       3.5211      0.00000
     40       4.5849      0.00000

 k-point     6 :       0.5000    0.0000    0.2500
  band No.  band energies     occupation 
      1     -11.8502      2.00000
      2     -11.8502      2.00000
      3     -11.7586      2.00000
      4     -11.7586      2.00000
      5     -11.7201      2.00000
      6     -11.7201      2.00000
      7      -9.4282      2.00000
      8      -9.4282      2.00000
      9      -9.2709      2.00000
     10      -9.2709      2.00000
     11      -9.1791      2.00000
     12      -9.1791      2.00000
     13      -5.0143      2.00000
     14      -5.0143      2.00000
     15      -4.8248      2.00000
     16      -4.8248      2.00000
     17      -4.6728      2.00000
     18      -4.6728      2.00000
     19      -3.6849      2.00000
     20      -3.6849      2.00000
     21      -3.4403      2.00000
     22      -3.4403      2.00000
     23      -3.3070      2.00000
     24      -3.3070      2.00000
     25      -1.5487      2.00000
     26      -1.5487      2.00000
     27      -1.2052      2.00000
     28      -1.2052      2.00000
     29      -0.9094      2.00000
     30      -0.9094      2.00000
     31       2.0081      0.00000
     32       2.0081      0.00000
     33       2.3110      0.00000
     34       2.3110      0.00000
     35       2.4579      0.00000
     36       2.4579      0.00000
     37       3.1813      0.00000
     38       3.1813      0.00000
     39       3.4052      0.00000
     40       3.4052      0.00000

 k-point     7 :       0.0000    0.0000    0.5000
  band No.  band energies     occupation 
      1     -13.5429      2.00000
      2     -13.5429      2.00000
      3     -13.4738      2.00000
      4     -13.4738      2.00000
      5     -13.4270      2.00000
      6     -13.4270      2.00000
      7      -8.5692      2.00000
      8      -8.5692      2.00000
      9      -8.2524      2.00000
     10      -8.2524      2.00000
     11      -7.9785      2.00000
     12      -7.9785      2.00000
     13      -3.5907      2.00000
     14      -3.5907      2.00000
     15      -2.8276      2.00000
     16      -2.8276      2.00000
     17      -2.4179      2.00000
     18      -2.4179      2.00000
     19      -2.3751      2.00000
     20      -2.3751      2.00000
     21      -2.3292      2.00000
     22      -2.3292      2.00000
     23      -2.0217      2.00000
     24      -2.0217      2.00000
     25      -0.7253      2.00000
     26      -0.7253      2.00000
     27      -0.5172      2.00000
     28      -0.5172      2.00000
     29      -0.4445      2.00000
     30      -0.4445      2.00000
     31       2.1911      0.00000
     32       2.1911      0.00000
     33       2.2334      0.00000
     34       2.2334      0.00000
     35       2.2862      0.00000
     36       2.2862      0.00000
     37       3.4204      0.00000
     38       3.4210      0.00000
     39       3.5668      0.00000
     40       3.5761      0.00000

 k-point     8 :       0.2500    0.0000    0.5000
  band No.  band energies     occupation 
      1     -12.8659      2.00000
      2     -12.8659      2.00000
      3     -12.7975      2.00000
      4     -12.7975      2.00000
      5     -12.7533      2.00000
      6     -12.7533      2.00000
      7      -8.3867      2.00000
      8      -8.3867      2.00000
      9      -8.1511      2.00000
     10      -8.1511      2.00000
     11      -7.9757      2.00000
     12      -7.9757      2.00000
     13      -5.3691      2.00000
     14      -5.3691      2.00000
     15      -5.2006      2.00000
     16      -5.2006      2.00000
     17      -5.0532      2.00000
     18      -5.0532      2.00000
     19      -3.2031      2.00000
     20      -3.2031      2.00000
     21      -2.6222      2.00000
     22      -2.6222      2.00000
     23      -2.1717      2.00000
     24      -2.1717      2.00000
     25      -1.5276      2.00000
     26      -1.5276      2.00000
     27      -1.1662      2.00000
     28      -1.1662      2.00000
     29      -0.7378      2.00000
     30      -0.7378      2.00000
     31       2.7608      0.00000
     32       2.7608      0.00000
     33       3.3316      0.00000
     34       3.3316      0.00000
     35       3.4685      0.00000
     36       3.4685      0.00000
     37       3.9139      0.00000
     38       3.9139      0.00000
     39       4.0038      0.00000
     40       4.0038      0.00000

 k-point     9 :       0.5000    0.0000    0.5000
  band No.  band energies     occupation 
      1     -11.5617      2.00000
      2     -11.5617      2.00000
      3     -11.5065      2.00000
      4     -11.5065      2.00000
      5     -11.5064      2.00000
      6     -11.5064      2.00000
      7      -9.5261      2.00000
      8      -9.5261      2.00000
      9      -9.4638      2.00000
     10      -9.4638      2.00000
     11      -9.4625      2.00000
     12      -9.4625      2.00000
     13      -4.9586      2.00000
     14      -4.9586      2.00000
     15      -4.9445      2.00000
     16      -4.9445      2.00000
     17      -4.6687      2.00000
     18      -4.6687      2.00000
     19      -4.6158      2.00000
     20      -4.6158      2.00000
     21      -4.3730      2.00000
     22      -4.3730      2.00000
     23      -4.3721      2.00000
     24      -4.3721      2.00000
     25      -1.2341      2.00000
     26      -1.2341      2.00000
     27      -1.1802      2.00000
     28      -1.1802      2.00000
     29      -1.0517      2.00000
     30      -1.0517      2.00000
     31       2.6267      0.00000
     32       2.6267      0.00000
     33       2.7607      0.00000
     34       2.7607      0.00000
     35       2.8986      0.00000
     36       2.8986      0.00000
     37       4.8142      0.00000
     38       4.8428      0.00000
     39       4.8686      0.00000
     40       4.8713      0.00000


--------------------------------------------------------------------------------------------------------


 soft charge-density along one line, spin component           1
         0         1         2         3         4         5         6         7         8         9
 total charge-density along one line
 
 pseudopotential strength for first ion, spin component:           1
 29.684  37.030   0.034  -0.033   0.000   0.054  -0.051   0.000
 37.030  46.197   0.043  -0.041   0.000   0.067  -0.064   0.000
  0.034   0.043   6.554   0.006  -0.000  10.135   0.009  -0.000
 -0.033  -0.041   0.006   6.558   0.000   0.009  10.141   0.000
  0.000   0.000  -0.000   0.000   6.561  -0.000   0.000  10.147
  0.054   0.067  10.135   0.009  -0.000  15.692   0.014  -0.000
 -0.051  -0.064   0.009  10.141   0.000   0.014  15.702   0.000
  0.000   0.000  -0.000   0.000  10.147  -0.000   0.000  15.710
 total augmentation occupancy for first ion, spin component:           1
  8.314  -4.741   1.846  -1.945   0.000  -0.591   0.652  -0.000
 -4.741   3.442  -1.586   1.652  -0.000   0.437  -0.480   0.000
  1.846  -1.586   3.129   0.194   0.000  -0.825  -0.162   0.000
 -1.945   1.652   0.194   3.262   0.000  -0.161  -0.923   0.000
  0.000  -0.000   0.000   0.000   3.408   0.000   0.000  -1.025
 -0.591   0.437  -0.825  -0.161   0.000   0.259   0.069   0.000
  0.652  -0.480  -0.162  -0.923   0.000   0.069   0.298   0.000
 -0.000   0.000   0.000   0.000  -1.025   0.000   0.000   0.339


------------------------ aborting loop because EDIFF is reached ----------------------------------------


 


 total charge     
 
# of ion       s       p       d       tot
------------------------------------------
    1        1.081   1.377   0.000   2.458
    2        1.081   1.377   0.000   2.458
    3        1.083   1.373   0.000   2.456
    4        1.083   1.373   0.000   2.456
    5        1.084   1.372   0.000   2.456
    6        1.084   1.372   0.000   2.456
    7        1.084   1.372   0.000   2.456
    8        1.084   1.372   0.000   2.456
    9        1.083   1.373   0.000   2.456
   10        1.083   1.373   0.000   2.456
   11        1.081   1.377   0.000   2.458
   12        1.081   1.377   0.000   2.458
--------------------------------------------------
tot         12.993  16.487   0.000  29.480
 
    CHARGE:  cpu time    0.0239: real time    0.0239
    FORLOC:  cpu time    0.0012: real time    0.0012
    FORNL :  cpu time    0.0807: real time    0.0807
    STRESS:  cpu time    0.1245: real time    0.1245
    FORCOR:  cpu time    0.0133: real time    0.0133
    FORHAR:  cpu time    0.0039: real time    0.0039
    MIXING:  cpu time    0.0009: real time    0.0009
    OFIELD:  cpu time    0.0000: real time    0.0000

  DFT-D2 method for vdW energy calculation
  -------------------------------------------------------------------

  Parameters of vdW forcefield:
         C6(Jnm^6/mol)     R0(A)
   -----------------------------
   P        7.840          1.705

  IVDW =  10
  VDW_RADIUS =    50.000 A
  VDW_S6 =     0.750
  VDW_SR =     1.000
  VDW_D =    20.000
  LVDW_EWALD = F

  Number of pair interactions contributing to vdW energy:   88382
  Edisp (eV):   -2.17394
    FORVDW:  cpu time    0.0521: real time    0.0525

  FORCE on cell =-STRESS in cart. coord.  units (eV):
  Direction    XX          YY          ZZ          XY          YZ          ZX
  --------------------------------------------------------------------------------------
  Alpha Z    30.28014    30.28014    30.28014
  Ewald   16591.01473-18044.25022 16426.47569    -0.00000     0.00000     0.00000
  Hartree 16898.18356-16770.97203 16841.21957    -0.00000    -0.00000    -0.00000
  E(xc)    -201.50626  -202.69565  -201.58615     0.00000     0.00000     0.00000
  Local  -34442.73906 33820.64606-34238.69619    -0.00000     0.00000    -0.00000
  n-local   680.81275   677.92878   673.69550    -0.00000    -0.00000     1.07332
  augment  -126.65905  -130.38537  -128.59775    -0.00000     0.00000    -0.00000
  Kinetic   573.04468   619.81901   598.02943     0.00000    -0.00000     4.95425
  Fock        0.00000     0.00000     0.00000     0.00000     0.00000     0.00000
  vdW        -0.23282    -1.41063    -0.99576    -0.00000    -0.00000     0.00000
  -------------------------------------------------------------------------------------
  Total       2.19867    -1.03992    -0.17552     0.00000    -0.00000     0.00000
  in kB       7.38818    -3.49444    -0.58980     0.00000    -0.00000     0.00000
  external pressure =        1.10 kB  Pullay stress =        0.00 kB


 VOLUME and BASIS-vectors are now :
 -----------------------------------------------------------------------------
  energy-cutoff  :      400.00
  volume of cell :      476.80
      direct lattice vectors                 reciprocal lattice vectors
     3.342886000  0.000000000  0.000000000     0.299142717  0.000000000  0.000000000
     0.000000000 32.602409000  0.000000000     0.000000000  0.030672580  0.000000000
     0.000000000  0.000000000  4.374831000     0.000000000  0.000000000  0.228580258

  length of vectors
     3.342886000 32.602409000  4.374831000     0.299142717  0.030672580  0.228580258


 FORCES acting on ions
    electron-ion (+dipol)            ewald-force                    non-local-force                 convergence-correction
 -----------------------------------------------------------------------------------------------
   0.102E-14 0.823E+03 -.291E+02   0.114E-14 -.828E+03 0.342E+02   0.000E+00 0.572E+01 -.515E+01   -.117E-14 0.132E-02 -.798E-03
   0.392E-14 0.823E+03 0.291E+02   -.458E-14 -.828E+03 -.342E+02   0.139E-16 0.572E+01 0.515E+01   -.666E-15 0.132E-02 0.798E-03
   0.848E-15 0.459E+03 0.260E+02   0.181E-14 -.453E+03 -.313E+02   0.139E-16 -.542E+01 0.521E+01   -.741E-15 -.254E-02 -.340E-04
   0.458E-14 0.459E+03 -.260E+02   -.613E-14 -.453E+03 0.313E+02   -.278E-16 -.542E+01 -.521E+01   -.127E-14 -.254E-02 0.340E-04
   0.236E-14 0.183E+03 -.262E+02   0.754E-15 -.189E+03 0.314E+02   -.139E-16 0.535E+01 -.518E+01   -.145E-14 0.456E-02 -.175E-02
   -.304E-15 0.183E+03 0.262E+02   -.638E-14 -.189E+03 -.314E+02   0.000E+00 0.535E+01 0.518E+01   0.208E-14 0.456E-02 0.175E-02
   0.310E-14 -.183E+03 0.262E+02   0.197E-14 0.189E+03 -.314E+02   0.139E-16 -.535E+01 0.518E+01   0.272E-15 -.456E-02 0.175E-02
   0.278E-15 -.183E+03 -.262E+02   -.498E-14 0.189E+03 0.314E+02   0.000E+00 -.535E+01 -.518E+01   0.234E-15 -.456E-02 -.175E-02
   0.144E-16 -.459E+03 -.260E+02   0.911E-15 0.453E+03 0.313E+02   -.139E-16 0.542E+01 -.521E+01   0.294E-14 0.254E-02 0.340E-04
   0.270E-14 -.459E+03 0.260E+02   -.523E-14 0.453E+03 -.313E+02   0.278E-16 0.542E+01 0.521E+01   -.113E-14 0.254E-02 -.340E-04
   0.395E-14 -.823E+03 0.291E+02   0.158E-14 0.828E+03 -.342E+02   0.000E+00 -.572E+01 0.515E+01   0.347E-14 -.132E-02 0.798E-03
   0.132E-14 -.823E+03 -.291E+02   -.679E-14 0.828E+03 0.342E+02   -.139E-16 -.572E+01 -.515E+01   -.112E-15 -.132E-02 -.798E-03
 -----------------------------------------------------------------------------------------------
   0.238E-13 0.398E-11 0.425E-10   -.259E-13 0.000E+00 -.711E-14   0.000E+00 0.888E-15 0.888E-15   0.245E-14 -.270E-11 -.968E-14
 
 
 POSITION                                       TOTAL-FORCE (eV/Angst)
 -----------------------------------------------------------------------------------
      0.00000     10.00001      4.02014         0.000000      0.086616     -0.025720
      1.67144     10.00001      2.54211        -0.000000      0.086616      0.025720
      0.00000     12.14332      0.35469         0.000000     -0.079189     -0.040055
      1.67144     12.14332      1.83272         0.000000     -0.079189      0.040055
      1.67144     15.22953      4.02014         0.000000      0.039461      0.012053
      0.00000     15.22953      2.54211         0.000000      0.039461     -0.012053
      1.67144     17.37288      0.35469         0.000000     -0.039461     -0.012053
      0.00000     17.37288      1.83272         0.000000     -0.039461      0.012053
      0.00000     20.45909      4.02014         0.000000      0.079189      0.040055
      1.67144     20.45909      2.54211         0.000000      0.079189     -0.040055
      0.00000     22.60240      0.35469         0.000000     -0.086616      0.025720
      1.67144     22.60240      1.83272         0.000000     -0.086616     -0.025720
 -----------------------------------------------------------------------------------
    total drift:                                0.000000      0.000000      0.000000


--------------------------------------------------------------------------------------------------------



  FREE ENERGIE OF THE ION-ELECTRON SYSTEM (eV)
  ---------------------------------------------------
  free  energy   TOTEN  =       -66.38242462 eV

  energy  without entropy=      -66.38242450  energy(sigma->0) =      -66.38242456
 


--------------------------------------------------------------------------------------------------------


    POTLOK:  cpu time    0.0909: real time    0.0909


--------------------------------------------------------------------------------------------------------


 writing wavefunctions
     LOOP+:  cpu time   10.3319: real time   10.3906
    4ORBIT:  cpu time    0.0000: real time    0.0000
 


 total charge     
 
# of ion       s       p       d       tot
------------------------------------------
    1        1.081   1.377   0.000   2.458
    2        1.081   1.377   0.000   2.458
    3        1.083   1.373   0.000   2.456
    4        1.083   1.373   0.000   2.456
    5        1.084   1.372   0.000   2.456
    6        1.084   1.372   0.000   2.456
    7        1.084   1.372   0.000   2.456
    8        1.084   1.372   0.000   2.456
    9        1.083   1.373   0.000   2.456
   10        1.083   1.373   0.000   2.456
   11        1.081   1.377   0.000   2.458
   12        1.081   1.377   0.000   2.458
--------------------------------------------------
tot         12.993  16.487   0.000  29.480
 

 total amount of memory used by VASP MPI-rank0    34346. kBytes
=======================================================================

   base      :      30000. kBytes
   nonl-proj :        854. kBytes
   fftplans  :        792. kBytes
   grid      :       1070. kBytes
   one-center:          6. kBytes
   wavefun   :       1624. kBytes
 
  
  
 General timing and accounting informations for this job:
 ========================================================
  
                  Total CPU time used (sec):       15.756
                            User time (sec):       13.658
                          System time (sec):        2.099
                         Elapsed time (sec):       16.189
  
                   Maximum memory used (kb):      105676.
                   Average memory used (kb):           0.
  
                          Minor page faults:        33858
                          Major page faults:            0
                 Voluntary context switches:         1829
