 vasp.5.4.4.18Apr17-6-g9f103f2a35 (build Jun 20 2017 18:00:50) complex          
  
 executed on             LinuxIFC date 2018.03.16  15:56:14
 running on   32 total cores
 distrk:  each k-point on   32 cores,    1 groups
 distr:  one band on NCORES_PER_BAND=   8 cores,    4 groups


--------------------------------------------------------------------------------------------------------


 INCAR:
 POTCAR:    PAW_PBE P 06Sep2000                   
 POTCAR:    PAW_PBE P 06Sep2000                   
   VRHFIN =P : s2p3                                                             
   LEXCH  = PE                                                                  
   EATOM  =   176.0430 eV,   12.9388 Ry                                         
                                                                                
   TITEL  = PAW_PBE P 06Sep2000                                                 
   LULTRA =        F    use ultrasoft PP ?                                      
   IUNSCR =        1    unscreen: 0-lin 1-nonlin 2-no                           
   RPACOR =    1.500    partial core radius                                     
   POMASS =   30.974; ZVAL   =    5.000    mass and valenz                      
   RCORE  =    1.900    outmost cutoff radius                                   
   RWIGS  =    2.330; RWIGS  =    1.233    wigner-seitz radius (au A)           
   ENMAX  =  255.040; ENMIN  =  191.280 eV                                      
   ICORE  =        2    local potential                                         
   LCOR   =        T    correct aug charges                                     
   LPAW   =        T    paw PP                                                  
   EAUG   =  342.924                                                            
   DEXC   =    0.000                                                            
   RMAX   =    1.935    core radius for proj-oper                               
   RAUG   =    1.300    factor for augmentation sphere                          
   RDEP   =    1.931    radius for radial grids                                 
   RDEPT  =    1.794    core radius for aug-charge                              
                                                                                
   Atomic configuration                                                         
    6 entries                                                                   
     n  l   j            E        occ.                                          
     1  0  0.50     -2084.0982   2.0000                                         
     2  0  0.50      -173.9859   2.0000                                         
     2  1  1.50      -124.4865   6.0000                                         
     3  0  0.50       -13.9692   2.0000                                         
     3  1  0.50        -5.5067   3.0000                                         
     3  2  1.50        -5.4423   0.0000                                         
   Description                                                                  
     l       E           TYP  RCUT    TYP  RCUT                                 
     0    -13.9691527     23  1.900                                             
     0    -11.7794650     23  1.900                                             
     1     -5.5066937     23  1.900                                             
     1     -0.2556953     23  1.900                                             
     2     -5.4423304     23  1.900                                             
  local pseudopotential read in
  partial core-charges read in
  partial kinetic energy density read in
  atomic valenz-charges read in
  non local Contribution for L=           0  read in
    real space projection operators read in
  non local Contribution for L=           0  read in
    real space projection operators read in
  non local Contribution for L=           1  read in
    real space projection operators read in
  non local Contribution for L=           1  read in
    real space projection operators read in
    PAW grid and wavefunctions read in
 
   number of l-projection  operators is LMAX  =           4
   number of lm-projection operators is LMMAX =           8
 
  PAW_PBE P 06Sep2000                   :
 energy of atom  1       EATOM= -176.0430
 kinetic energy error for atom=    0.0023 (will be added to EATOM!!)
 
 
 POSCAR: P12                                     
  positions in direct lattice
  No initial velocities read in
 exchange correlation table for  LEXCH =        8
   RHO(1)=    0.500       N(1)  =     2000
   RHO(2)=  100.500       N(2)  =     4000
 


--------------------------------------------------------------------------------------------------------


 ion  position               nearest neighbor table
   1  0.000  0.307  0.919-   2 2.23   2 2.23   3 2.26
   2  0.500  0.307  0.581-   1 2.23   1 2.23   4 2.26
   3  0.000  0.372  0.081-   4 2.23   4 2.23   1 2.26
   4  0.500  0.372  0.419-   3 2.23   3 2.23   2 2.26
   5  0.500  0.467  0.919-   6 2.23   6 2.23   7 2.26
   6  0.000  0.467  0.581-   5 2.23   5 2.23   8 2.26
   7  0.500  0.533  0.081-   8 2.23   8 2.23   5 2.26
   8  0.000  0.533  0.419-   7 2.23   7 2.23   6 2.26
   9  0.000  0.628  0.919-  10 2.23  10 2.23  11 2.26
  10  0.500  0.628  0.581-   9 2.23   9 2.23  12 2.26
  11  0.000  0.693  0.081-  12 2.23  12 2.23   9 2.26
  12  0.500  0.693  0.419-  11 2.23  11 2.23  10 2.26
 
  LATTYP: Found a simple orthorhombic cell.
 ALAT       =     3.3428860000
 B/A-ratio  =     1.3086988309
 C/A-ratio  =     9.7527732026
  
  Lattice vectors:
  
 A1 = (  -3.3428860000,   0.0000000000,   0.0000000000)
 A2 = (   0.0000000000,   0.0000000000,  -4.3748310000)
 A3 = (   0.0000000000, -32.6024090000,   0.0000000000)


Analysis of symmetry for initial positions (statically):
=====================================================================
 Subroutine PRICEL returns:
 Original cell was already a primitive cell.
 

 Routine SETGRP: Setting up the symmetry group for a 
 simple orthorhombic supercell.


 Subroutine GETGRP returns: Found  8 space group operations
 (whereof  4 operations were pure point group operations)
 out of a pool of  8 trial point group operations.


The static configuration has the point symmetry C_2h.
 The point group associated with its full space group is D_2h.


Analysis of symmetry for dynamics (positions and initial velocities):
=====================================================================
 Subroutine PRICEL returns:
 Original cell was already a primitive cell.
 

 Routine SETGRP: Setting up the symmetry group for a 
 simple orthorhombic supercell.


 Subroutine GETGRP returns: Found  8 space group operations
 (whereof  4 operations were pure point group operations)
 out of a pool of  8 trial point group operations.


The dynamic configuration has the point symmetry C_2h.
 The point group associated with its full space group is D_2h.


 Subroutine INISYM returns: Found  8 space group operations
 (whereof  4 operations are pure point group operations),
 and found     1 'primitive' translations

 
 
 KPOINTS: Automatic mesh                          

Automatic generation of k-mesh.
Space group operators:
 irot       det(A)        alpha          n_x          n_y          n_z        tau_x        tau_y        tau_z
    1     1.000000     0.000001     1.000000     0.000000     0.000000     0.000000     0.000000     0.000000
    2    -1.000000     0.000001     1.000000     0.000000     0.000000     0.000000     0.000000     0.000000
    3     1.000000   179.999999     1.000000     0.000000     0.000000     0.000000     0.000000     0.000000
    4    -1.000000   179.999999     1.000000     0.000000     0.000000     0.000000     0.000000     0.000000
    5     1.000000   179.999999     0.000000     1.000000     0.000000    -0.500000     0.000000    -0.500000
    6    -1.000000   179.999999     0.000000     1.000000     0.000000    -0.500000     0.000000    -0.500000
    7     1.000000   179.999999     0.000000     0.000000     1.000000    -0.500000     0.000000    -0.500000
    8    -1.000000   179.999999     0.000000     0.000000     1.000000    -0.500000     0.000000    -0.500000
 
 Subroutine IBZKPT returns following result:
 ===========================================
 
 Found      9 irreducible k-points:
 
 Following reciprocal coordinates:
            Coordinates               Weight
  0.000000  0.000000  0.000000      1.000000
  0.200000  0.000000  0.000000      2.000000
  0.400000  0.000000  0.000000      2.000000
  0.000000  0.000000  0.250000      2.000000
  0.200000  0.000000  0.250000      4.000000
  0.400000  0.000000  0.250000      4.000000
  0.000000  0.000000  0.500000      1.000000
  0.200000  0.000000  0.500000      2.000000
  0.400000  0.000000  0.500000      2.000000
 
 Following cartesian coordinates:
            Coordinates               Weight
  0.000000  0.000000  0.000000      1.000000
  0.059829  0.000000  0.000000      2.000000
  0.119657  0.000000  0.000000      2.000000
  0.000000  0.000000  0.057145      2.000000
  0.059829  0.000000  0.057145      4.000000
  0.119657  0.000000  0.057145      4.000000
  0.000000  0.000000  0.114290      1.000000
  0.059829  0.000000  0.114290      2.000000
  0.119657  0.000000  0.114290      2.000000
 


--------------------------------------------------------------------------------------------------------




 Dimension of arrays:
   k-points           NKPTS =      9   k-points in BZ     NKDIM =      9   number of bands    NBANDS=     40
   number of dos      NEDOS =   2000   number of ions     NIONS =     12
   non local maximal  LDIM  =      4   non local SUM 2l+1 LMDIM =      8
   total plane-waves  NPLWV =  61440
   max r-space proj   IRMAX =      1   max aug-charges    IRDMAX=   4120
   dimension x,y,z NGX =    16 NGY =  160 NGZ =   24
   dimension x,y,z NGXF=    32 NGYF=  320 NGZF=   48
   support grid    NGXF=    32 NGYF=  320 NGZF=   48
   ions per type =              12
   NGX,Y,Z   is equivalent  to a cutoff of   7.96,  8.16,  9.12 a.u.
   NGXF,Y,Z  is equivalent  to a cutoff of  15.91, 16.32, 18.24 a.u.

 SYSTEM =  Generic Input                           
 POSCAR =  P12                                     

 Startparameter for this run:
   NWRITE =      2    write-flag & timer
   PREC   = normal    normal or accurate (medium, high low for compatibility)
   ISTART =      0    job   : 0-new  1-cont  2-samecut
   ICHARG =      2    charge: 1-file 2-atom 10-const
   ISPIN  =      1    spin polarized calculation?
   LNONCOLLINEAR =      F non collinear calculations
   LSORBIT =      F    spin-orbit coupling
   INIWAV =      1    electr: 0-lowe 1-rand  2-diag
   LASPH  =      T    aspherical Exc in radial PAW
   METAGGA=      F    non-selfconsistent MetaGGA calc.

 Electronic Relaxation 1
   ENCUT  =  400.0 eV  29.40 Ry    5.42 a.u.   5.45 53.17  7.13*2*pi/ulx,y,z
   ENINI  =  400.0     initial cutoff
   ENAUG  =  342.9 eV  augmentation charge cutoff
   NELM   =    200;   NELMIN=  2; NELMDL=  0     # of ELM steps 
   EDIFF  = 0.1E-04   stopping-criterion for ELM
   LREAL  =      F    real-space projection
   NLSPLINE    = F    spline interpolate recip. space projectors
   LCOMPAT=      F    compatible to vasp.4.4
   GGA_COMPAT  = T    GGA compatible to vasp.4.4-vasp.4.6
   LMAXPAW     = -100 max onsite density
   LMAXMIX     =    2 max onsite mixed and CHGCAR
   VOSKOWN=      0    Vosko Wilk Nusair interpolation
   ROPT   =    0.00000
 Ionic relaxation
   EDIFFG = -.2E-01   stopping-criterion for IOM
   NSW    =      0    number of steps for IOM
   NBLOCK =      1;   KBLOCK =      1    inner block; outer block 
   IBRION =     -1    ionic relax: 0-MD 1-quasi-New 2-CG
   NFREE  =      1    steps in history (QN), initial steepest desc. (CG)
   ISIF   =      3    stress and relaxation
   IWAVPR =     11    prediction:  0-non 1-charg 2-wave 3-comb
   ISYM   =      2    0-nonsym 1-usesym 2-fastsym
   LCORR  =      T    Harris-Foulkes like correction to forces

   POTIM  = 0.5000    time-step for ionic-motion
   TEIN   =    0.0    initial temperature
   TEBEG  =    0.0;   TEEND  =   0.0 temperature during run
   SMASS  =  -3.00    Nose mass-parameter (am)
   estimated Nose-frequenzy (Omega)   =  0.10E-29 period in steps =****** mass=  -0.255E-27a.u.
   SCALEE = 1.0000    scale energy and forces
   NPACO  =    256;   APACO  = 16.0  distance and # of slots for P.C.
   PSTRESS=    0.0 pullay stress

  Mass of Ions in am
   POMASS =  30.97
  Ionic Valenz
   ZVAL   =   5.00
  Atomic Wigner-Seitz radii
   RWIGS  =  -1.00
  virtual crystal weights 
   VCA    =   1.00
   NELECT =      60.0000    total number of electrons
   NUPDOWN=      -1.0000    fix difference up-down

 DOS related values:
   EMIN   =  10.00;   EMAX   =-10.00  energy-range for DOS
   EFERMI =   0.00
   ISMEAR =     0;   SIGMA  =   0.01  broadening in eV -4-tet -1-fermi 0-gaus

 Electronic relaxation 2 (details)
   IALGO  =     38    algorithm
   LDIAG  =      T    sub-space diagonalisation (order eigenvalues)
   LSUBROT=      F    optimize rotation matrix (better conditioning)
   TURBO    =      0    0=normal 1=particle mesh
   IRESTART =      0    0=no restart 2=restart with 2 vectors
   NREBOOT  =      0    no. of reboots
   NMIN     =      0    reboot dimension
   EREF     =   0.00    reference energy to select bands
   IMIX   =      4    mixing-type and parameters
     AMIX     =   0.40;   BMIX     =  1.00
     AMIX_MAG =   1.60;   BMIX_MAG =  1.00
     AMIN     =   0.10
     WC   =   100.;   INIMIX=   1;  MIXPRE=   1;  MAXMIX= -45

 Intra band minimization:
   WEIMIN = 0.0000     energy-eigenvalue tresh-hold
   EBREAK =  0.63E-07  absolut break condition
   DEPER  =   0.30     relativ break condition  

   TIME   =   0.40     timestep for ELM

  volume/ion in A,a.u.               =      39.73       268.13
  Fermi-wavevector in a.u.,A,eV,Ry     =   0.820379  1.550291  9.157011  0.673021
  Thomas-Fermi vector in A             =   1.931350
 
 Write flags
   LWAVE        =      T    write WAVECAR
   LDOWNSAMPLE  =      F    k-point downsampling of WAVECAR
   LCHARG       =      T    write CHGCAR
   LVTOT        =      F    write LOCPOT, total local potential
   LVHAR        =      T    write LOCPOT, Hartree potential only
   LELF         =      F    write electronic localiz. function (ELF)
   LORBIT       =     11    0 simple, 1 ext, 2 COOP (PROOUT), +10 PAW based schemes


 Dipole corrections
   LMONO  =      F    monopole corrections only (constant potential shift)
   LDIPOL =      F    correct potential (dipole corrections)
   IDIPOL =      0    1-x, 2-y, 3-z, 4-all directions 
   EPSILON=  1.0000000 bulk dielectric constant

 Core level calculations are selected ICORELEVEL =  1
 Exchange correlation treatment:
   GGA     =    PE    GGA type
   LEXCH   =     8    internal setting for exchange type
   VOSKOWN=      0    Vosko Wilk Nusair interpolation
   LHFCALC =     F    Hartree Fock is set to
   LHFONE  =     F    Hartree Fock one center treatment
   AEXX    =    0.0000 exact exchange contribution

 Linear response parameters
   LEPSILON=     F    determine dielectric tensor
   LRPA    =     F    only Hartree local field effects (RPA)
   LNABLA  =     F    use nabla operator in PAW spheres
   LVEL    =     F    velocity operator in full k-point grid
   LINTERFAST=   F  fast interpolation
   KINTER  =     0    interpolate to denser k-point grid
   CSHIFT  =0.1000    complex shift for real part using Kramers Kronig
   OMEGAMAX=  -1.0    maximum frequency
   DEG_THRESHOLD= 0.2000000E-02 threshold for treating states as degnerate
   RTIME   =   -0.100 relaxation time in fs
  (WPLASMAI=    0.000 imaginary part of plasma frequency in eV, 0.658/RTIME)
   DFIELD  = 0.0000000 0.0000000 0.0000000 field for delta impulse in time
 
 Orbital magnetization related:
   ORBITALMAG=     F  switch on orbital magnetization
   LCHIMAG   =     F  perturbation theory with respect to B field
   DQ        =  0.001000  dq finite difference perturbation B field
   LLRAUG    =     F  two centre corrections for induced B field



--------------------------------------------------------------------------------------------------------


 Static calculation
 charge density and potential will be updated during run
 non-spin polarized calculation
 Variant of blocked Davidson
 Davidson routine will perform the subspace rotation
 perform sub-space diagonalisation
    after iterative eigenvector-optimisation
 modified Broyden-mixing scheme, WC =      100.0
 initial mixing is a Kerker type mixing with AMIX =  0.4000 and BMIX =      1.0000
 Hartree-type preconditioning will be used
 using additional bands           10
 reciprocal scheme for non local part
 use partial core corrections
 calculate Harris-corrections to forces 
   (improved forces if not selfconsistent)
 use gradient corrections 
 use of overlap-Matrix (Vanderbilt PP)
 Gauss-broadening in eV      SIGMA  =   0.01


--------------------------------------------------------------------------------------------------------


  energy-cutoff  :      400.00
  volume of cell :      476.80
      direct lattice vectors                 reciprocal lattice vectors
     3.342886000  0.000000000  0.000000000     0.299142717  0.000000000  0.000000000
     0.000000000 32.602409000  0.000000000     0.000000000  0.030672580  0.000000000
     0.000000000  0.000000000  4.374831000     0.000000000  0.000000000  0.228580258

  length of vectors
     3.342886000 32.602409000  4.374831000     0.299142717  0.030672580  0.228580258


 
 k-points in units of 2pi/SCALE and weight: Automatic mesh                          
   0.00000000  0.00000000  0.00000000       0.050
   0.05982854  0.00000000  0.00000000       0.100
   0.11965709  0.00000000  0.00000000       0.100
   0.00000000  0.00000000  0.05714506       0.100
   0.05982854  0.00000000  0.05714506       0.200
   0.11965709  0.00000000  0.05714506       0.200
   0.00000000  0.00000000  0.11429013       0.050
   0.05982854  0.00000000  0.11429013       0.100
   0.11965709  0.00000000  0.11429013       0.100
 
 k-points in reciprocal lattice and weights: Automatic mesh                          
   0.00000000  0.00000000  0.00000000       0.050
   0.20000000  0.00000000  0.00000000       0.100
   0.40000000  0.00000000  0.00000000       0.100
   0.00000000  0.00000000  0.25000000       0.100
   0.20000000  0.00000000  0.25000000       0.200
   0.40000000  0.00000000  0.25000000       0.200
   0.00000000  0.00000000  0.50000000       0.050
   0.20000000  0.00000000  0.50000000       0.100
   0.40000000  0.00000000  0.50000000       0.100
 
 position of ions in fractional coordinates (direct lattice) 
   0.00000000  0.30672600  0.91892400
   0.50000000  0.30672600  0.58107600
   0.00000000  0.37246700  0.08107600
   0.50000000  0.37246700  0.41892400
   0.50000000  0.46712900  0.91892400
   0.00000000  0.46712900  0.58107600
   0.50000000  0.53287100  0.08107600
   0.00000000  0.53287100  0.41892400
   0.00000000  0.62753300  0.91892400
   0.50000000  0.62753300  0.58107600
   0.00000000  0.69327400  0.08107600
   0.50000000  0.69327400  0.41892400
 
 position of ions in cartesian coordinates  (Angst):
   0.00000000 10.00000650  4.02013720
   1.67144300 10.00000650  2.54210930
   0.00000000 12.14332147  0.35469380
   1.67144300 12.14332147  1.83272170
   1.67144300 15.22953071  4.02013720
   0.00000000 15.22953071  2.54210930
   1.67144300 17.37287829  0.35469380
   0.00000000 17.37287829  1.83272170
   0.00000000 20.45908753  4.02013720
   1.67144300 20.45908753  2.54210930
   0.00000000 22.60240250  0.35469380
   1.67144300 22.60240250  1.83272170
 


--------------------------------------------------------------------------------------------------------


 k-point  1 :   0.0000 0.0000 0.0000  plane waves:    8627
 k-point  2 :   0.2000 0.0000 0.0000  plane waves:    8699
 k-point  3 :   0.4000 0.0000 0.0000  plane waves:    8639
 k-point  4 :   0.0000 0.0000 0.2500  plane waves:    8712
 k-point  5 :   0.2000 0.0000 0.2500  plane waves:    8670
 k-point  6 :   0.4000 0.0000 0.2500  plane waves:    8628
 k-point  7 :   0.0000 0.0000 0.5000  plane waves:    8766
 k-point  8 :   0.2000 0.0000 0.5000  plane waves:    8680
 k-point  9 :   0.4000 0.0000 0.5000  plane waves:    8628

 maximum and minimum number of plane-waves per node :      1121     1059

 maximum number of plane-waves:      8766
 maximum index in each direction: 
   IXMAX=    5   IYMAX=   53   IZMAX=    7
   IXMIN=   -5   IYMIN=  -53   IZMIN=   -7


 parallel 3D FFT for wavefunctions:
    minimum data exchange during FFTs selected (reduces bandwidth)
 parallel 3D FFT for charge:
    minimum data exchange during FFTs selected (reduces bandwidth)


 total amount of memory used by VASP MPI-rank0    34319. kBytes
=======================================================================

   base      :      30000. kBytes
   nonl-proj :        844. kBytes
   fftplans  :        792. kBytes
   grid      :       1070. kBytes
   one-center:          6. kBytes
   wavefun   :       1607. kBytes
 
     INWAV:  cpu time    0.0000: real time    0.0000
 Broyden mixing: mesh for mixing (old mesh)
   NGX = 11   NGY =107   NGZ = 15
  (NGX  = 32   NGY  =320   NGZ  = 48)
  gives a total of  17655 points

 initial charge density was supplied:
 charge density of overlapping atoms calculated
 number of electron      60.0000000 magnetization 
 keeping initial charge density in first step


--------------------------------------------------------------------------------------------------------


 Maximum index for augmentation-charges          313 (set IRDMAX)


--------------------------------------------------------------------------------------------------------


 First call to EWALD:  gamma=   0.227
 Maximum number of real-space cells 6x 1x 5
 Maximum number of reciprocal cells 1x10x 2

    FEWALD:  cpu time    0.0017: real time    0.0017


--------------------------------------- Iteration      1(   1)  ---------------------------------------


    POTLOK:  cpu time    0.0289: real time    0.0302
    SETDIJ:  cpu time    0.0639: real time    0.0639
     EDDAV:  cpu time    0.3840: real time    0.3861
       DOS:  cpu time    0.0005: real time    0.0005
    --------------------------------------------
      LOOP:  cpu time    0.4774: real time    0.4808

 eigenvalue-minimisations  :   720
 total energy-change (2. order) : 0.3344034E+03  (-0.1919661E+04)
 number of electron      60.0000000 magnetization 
 augmentation part       60.0000000 magnetization 

 Free energy of the ion-electron system (eV)
  ---------------------------------------------------
  alpha Z        PSCENC =        30.28014394
  Ewald energy   TEWEN  =     14973.24208224
  -Hartree energ DENC   =    -16928.93300519
  -exchange      EXHF   =         0.00000000
  -V(xc)+E(xc)   XCENC  =        40.33410248
  PAW double counting   =      1677.12035881    -1579.18296132
  entropy T*S    EENTRO =        -0.00135610
  eigenvalues    EBANDS =         9.05534550
  atomic energy  EATOM  =      2112.48864025
  Solvation  Ediel_sol  =         0.00000000
  ---------------------------------------------------
  free energy    TOTEN  =       334.40335061 eV

  energy without entropy =      334.40470671  energy(sigma->0) =      334.40402866


--------------------------------------------------------------------------------------------------------




--------------------------------------- Iteration      1(   2)  ---------------------------------------


     EDDAV:  cpu time    0.4611: real time    0.4626
       DOS:  cpu time    0.0003: real time    0.0003
    --------------------------------------------
      LOOP:  cpu time    0.4614: real time    0.4630

 eigenvalue-minimisations  :  1016
 total energy-change (2. order) :-0.3610324E+03  (-0.3492385E+03)
 number of electron      60.0000000 magnetization 
 augmentation part       60.0000000 magnetization 

 Free energy of the ion-electron system (eV)
  ---------------------------------------------------
  alpha Z        PSCENC =        30.28014394
  Ewald energy   TEWEN  =     14973.24208224
  -Hartree energ DENC   =    -16928.93300519
  -exchange      EXHF   =         0.00000000
  -V(xc)+E(xc)   XCENC  =        40.33410248
  PAW double counting   =      1677.12035881    -1579.18296132
  entropy T*S    EENTRO =        -0.00000000
  eigenvalues    EBANDS =      -351.97839675
  atomic energy  EATOM  =      2112.48864025
  Solvation  Ediel_sol  =         0.00000000
  ---------------------------------------------------
  free energy    TOTEN  =       -26.62903555 eV

  energy without entropy =      -26.62903555  energy(sigma->0) =      -26.62903555


--------------------------------------------------------------------------------------------------------




--------------------------------------- Iteration      1(   3)  ---------------------------------------


     EDDAV:  cpu time    0.4182: real time    0.4189
       DOS:  cpu time    0.0003: real time    0.0003
    --------------------------------------------
      LOOP:  cpu time    0.4185: real time    0.4193

 eigenvalue-minimisations  :   888
 total energy-change (2. order) :-0.3681727E+02  (-0.3621590E+02)
 number of electron      60.0000000 magnetization 
 augmentation part       60.0000000 magnetization 

 Free energy of the ion-electron system (eV)
  ---------------------------------------------------
  alpha Z        PSCENC =        30.28014394
  Ewald energy   TEWEN  =     14973.24208224
  -Hartree energ DENC   =    -16928.93300519
  -exchange      EXHF   =         0.00000000
  -V(xc)+E(xc)   XCENC  =        40.33410248
  PAW double counting   =      1677.12035881    -1579.18296132
  entropy T*S    EENTRO =        -0.00000000
  eigenvalues    EBANDS =      -388.79566993
  atomic energy  EATOM  =      2112.48864025
  Solvation  Ediel_sol  =         0.00000000
  ---------------------------------------------------
  free energy    TOTEN  =       -63.44630872 eV

  energy without entropy =      -63.44630872  energy(sigma->0) =      -63.44630872


--------------------------------------------------------------------------------------------------------




--------------------------------------- Iteration      1(   4)  ---------------------------------------


     EDDAV:  cpu time    0.4654: real time    0.4677
       DOS:  cpu time    0.0003: real time    0.0003
    --------------------------------------------
      LOOP:  cpu time    0.4657: real time    0.4680

 eigenvalue-minimisations  :  1048
 total energy-change (2. order) :-0.1293905E+01  (-0.1285763E+01)
 number of electron      60.0000000 magnetization 
 augmentation part       60.0000000 magnetization 

 Free energy of the ion-electron system (eV)
  ---------------------------------------------------
  alpha Z        PSCENC =        30.28014394
  Ewald energy   TEWEN  =     14973.24208224
  -Hartree energ DENC   =    -16928.93300519
  -exchange      EXHF   =         0.00000000
  -V(xc)+E(xc)   XCENC  =        40.33410248
  PAW double counting   =      1677.12035881    -1579.18296132
  entropy T*S    EENTRO =        -0.00000000
  eigenvalues    EBANDS =      -390.08957503
  atomic energy  EATOM  =      2112.48864025
  Solvation  Ediel_sol  =         0.00000000
  ---------------------------------------------------
  free energy    TOTEN  =       -64.74021382 eV

  energy without entropy =      -64.74021382  energy(sigma->0) =      -64.74021382


--------------------------------------------------------------------------------------------------------




--------------------------------------- Iteration      1(   5)  ---------------------------------------


     EDDAV:  cpu time    0.4727: real time    0.4753
       DOS:  cpu time    0.0004: real time    0.0004
    CHARGE:  cpu time    0.0229: real time    0.0230
    MIXING:  cpu time    0.0007: real time    0.0007
    --------------------------------------------
      LOOP:  cpu time    0.4967: real time    0.4994

 eigenvalue-minimisations  :  1064
 total energy-change (2. order) :-0.3999156E-01  (-0.3996258E-01)
 number of electron      59.9999939 magnetization 
 augmentation part       -6.5204815 magnetization 

 Broyden mixing:
  rms(total) = 0.17515E+01    rms(broyden)= 0.17515E+01
  rms(prec ) = 0.17570E+01
  weight for this iteration     100.00

 Free energy of the ion-electron system (eV)
  ---------------------------------------------------
  alpha Z        PSCENC =        30.28014394
  Ewald energy   TEWEN  =     14973.24208224
  -Hartree energ DENC   =    -16928.93300519
  -exchange      EXHF   =         0.00000000
  -V(xc)+E(xc)   XCENC  =        40.33410248
  PAW double counting   =      1677.12035881    -1579.18296132
  entropy T*S    EENTRO =        -0.00000000
  eigenvalues    EBANDS =      -390.12956659
  atomic energy  EATOM  =      2112.48864025
  Solvation  Ediel_sol  =         0.00000000
  ---------------------------------------------------
  free energy    TOTEN  =       -64.78020538 eV

  energy without entropy =      -64.78020538  energy(sigma->0) =      -64.78020538


--------------------------------------------------------------------------------------------------------




--------------------------------------- Iteration      1(   6)  ---------------------------------------


    POTLOK:  cpu time    0.0129: real time    0.0145
    SETDIJ:  cpu time    0.0645: real time    0.0646
     EDDAV:  cpu time    0.4320: real time    0.4324
       DOS:  cpu time    0.0004: real time    0.0004
    CHARGE:  cpu time    0.0222: real time    0.0222
    MIXING:  cpu time    0.0007: real time    0.0007
    --------------------------------------------
      LOOP:  cpu time    0.5328: real time    0.5348

 eigenvalue-minimisations  :   936
 total energy-change (2. order) : 0.3252713E+00  (-0.1972953E-01)
 number of electron      59.9999939 magnetization 
 augmentation part       -6.4820643 magnetization 

 Broyden mixing:
  rms(total) = 0.10398E+01    rms(broyden)= 0.10398E+01
  rms(prec ) = 0.10430E+01
  weight for this iteration     100.00

 eigenvalues of (default mixing * dielectric matrix)
  average eigenvalue GAMMA=   2.4529
  2.4529

 Free energy of the ion-electron system (eV)
  ---------------------------------------------------
  alpha Z        PSCENC =        30.28014394
  Ewald energy   TEWEN  =     14973.24208224
  -Hartree energ DENC   =    -16941.16306642
  -exchange      EXHF   =         0.00000000
  -V(xc)+E(xc)   XCENC  =        41.37642731
  PAW double counting   =      3127.84761291    -3030.37363978
  entropy T*S    EENTRO =        -0.00000000
  eigenvalues    EBANDS =      -378.15313454
  atomic energy  EATOM  =      2112.48864025
  Solvation  Ediel_sol  =         0.00000000
  ---------------------------------------------------
  free energy    TOTEN  =       -64.45493409 eV

  energy without entropy =      -64.45493409  energy(sigma->0) =      -64.45493409


--------------------------------------------------------------------------------------------------------




--------------------------------------- Iteration      1(   7)  ---------------------------------------


    POTLOK:  cpu time    0.0133: real time    0.0147
    SETDIJ:  cpu time    0.0644: real time    0.0644
     EDDAV:  cpu time    0.4077: real time    0.4084
       DOS:  cpu time    0.0005: real time    0.0005
    CHARGE:  cpu time    0.0230: real time    0.0230
    MIXING:  cpu time    0.0006: real time    0.0006
    --------------------------------------------
      LOOP:  cpu time    0.5096: real time    0.5116

 eigenvalue-minimisations  :   880
 total energy-change (2. order) : 0.1486322E+00  (-0.3630278E-01)
 number of electron      59.9999940 magnetization 
 augmentation part       -6.4352693 magnetization 

 Broyden mixing:
  rms(total) = 0.43675E-01    rms(broyden)= 0.43674E-01
  rms(prec ) = 0.45009E-01
  weight for this iteration     100.00

 eigenvalues of (default mixing * dielectric matrix)
  average eigenvalue GAMMA=   2.0565
  1.5865  2.5265

 Free energy of the ion-electron system (eV)
  ---------------------------------------------------
  alpha Z        PSCENC =        30.28014394
  Ewald energy   TEWEN  =     14973.24208224
  -Hartree energ DENC   =    -16959.93168967
  -exchange      EXHF   =         0.00000000
  -V(xc)+E(xc)   XCENC  =        43.06876352
  PAW double counting   =      6236.00073292    -6139.09511372
  entropy T*S    EENTRO =        -0.00000033
  eigenvalues    EBANDS =      -360.35986107
  atomic energy  EATOM  =      2112.48864025
  Solvation  Ediel_sol  =         0.00000000
  ---------------------------------------------------
  free energy    TOTEN  =       -64.30630194 eV

  energy without entropy =      -64.30630161  energy(sigma->0) =      -64.30630177


--------------------------------------------------------------------------------------------------------




--------------------------------------- Iteration      1(   8)  ---------------------------------------


    POTLOK:  cpu time    0.0136: real time    0.0138
    SETDIJ:  cpu time    0.0644: real time    0.0644
     EDDAV:  cpu time    0.4246: real time    0.4250
       DOS:  cpu time    0.0004: real time    0.0004
    CHARGE:  cpu time    0.0233: real time    0.0233
    MIXING:  cpu time    0.0006: real time    0.0006
    --------------------------------------------
      LOOP:  cpu time    0.5270: real time    0.5275

 eigenvalue-minimisations  :   904
 total energy-change (2. order) : 0.3421988E-03  (-0.3183347E-02)
 number of electron      59.9999940 magnetization 
 augmentation part       -6.4456123 magnetization 

 Broyden mixing:
  rms(total) = 0.23162E-01    rms(broyden)= 0.23162E-01
  rms(prec ) = 0.23854E-01
  weight for this iteration     100.00

 eigenvalues of (default mixing * dielectric matrix)
  average eigenvalue GAMMA=   1.6388
  2.5265  1.1949  1.1949

 Free energy of the ion-electron system (eV)
  ---------------------------------------------------
  alpha Z        PSCENC =        30.28014394
  Ewald energy   TEWEN  =     14973.24208224
  -Hartree energ DENC   =    -16961.10745790
  -exchange      EXHF   =         0.00000000
  -V(xc)+E(xc)   XCENC  =        43.09590270
  PAW double counting   =      6336.75498670    -6239.77524102
  entropy T*S    EENTRO =        -0.00000008
  eigenvalues    EBANDS =      -359.28501656
  atomic energy  EATOM  =      2112.48864025
  Solvation  Ediel_sol  =         0.00000000
  ---------------------------------------------------
  free energy    TOTEN  =       -64.30595974 eV

  energy without entropy =      -64.30595966  energy(sigma->0) =      -64.30595970


--------------------------------------------------------------------------------------------------------




--------------------------------------- Iteration      1(   9)  ---------------------------------------


    POTLOK:  cpu time    0.0125: real time    0.0139
    SETDIJ:  cpu time    0.0642: real time    0.0644
     EDDAV:  cpu time    0.4792: real time    0.4797
       DOS:  cpu time    0.0004: real time    0.0004
    CHARGE:  cpu time    0.0221: real time    0.0221
    MIXING:  cpu time    0.0006: real time    0.0006
    --------------------------------------------
      LOOP:  cpu time    0.5791: real time    0.5812

 eigenvalue-minimisations  :  1088
 total energy-change (2. order) : 0.2843437E-04  (-0.1830505E-03)
 number of electron      59.9999940 magnetization 
 augmentation part       -6.4458767 magnetization 

 Broyden mixing:
  rms(total) = 0.19187E-01    rms(broyden)= 0.19187E-01
  rms(prec ) = 0.19781E-01
  weight for this iteration     100.00

 eigenvalues of (default mixing * dielectric matrix)
  average eigenvalue GAMMA=   1.8592
  2.3092  2.3092  1.4092  1.4092

 Free energy of the ion-electron system (eV)
  ---------------------------------------------------
  alpha Z        PSCENC =        30.28014394
  Ewald energy   TEWEN  =     14973.24208224
  -Hartree energ DENC   =    -16961.96030778
  -exchange      EXHF   =         0.00000000
  -V(xc)+E(xc)   XCENC  =        43.10639461
  PAW double counting   =      6338.23441646    -6241.24783589
  entropy T*S    EENTRO =        -0.00000008
  eigenvalues    EBANDS =      -358.44946505
  atomic energy  EATOM  =      2112.48864025
  Solvation  Ediel_sol  =         0.00000000
  ---------------------------------------------------
  free energy    TOTEN  =       -64.30593130 eV

  energy without entropy =      -64.30593122  energy(sigma->0) =      -64.30593126


--------------------------------------------------------------------------------------------------------




--------------------------------------- Iteration      1(  10)  ---------------------------------------


    POTLOK:  cpu time    0.0127: real time    0.0141
    SETDIJ:  cpu time    0.0644: real time    0.0644
     EDDAV:  cpu time    0.4074: real time    0.4081
       DOS:  cpu time    0.0004: real time    0.0004
    CHARGE:  cpu time    0.0220: real time    0.0220
    MIXING:  cpu time    0.0006: real time    0.0006
    --------------------------------------------
      LOOP:  cpu time    0.5075: real time    0.5097

 eigenvalue-minimisations  :   872
 total energy-change (2. order) : 0.2429303E-03  (-0.3852975E-04)
 number of electron      59.9999940 magnetization 
 augmentation part       -6.4471431 magnetization 

 Broyden mixing:
  rms(total) = 0.13775E-01    rms(broyden)= 0.13775E-01
  rms(prec ) = 0.14271E-01
  weight for this iteration     100.00

 eigenvalues of (default mixing * dielectric matrix)
  average eigenvalue GAMMA=   1.7782
  2.5143  2.5143  1.6435  1.1094  1.1094

 Free energy of the ion-electron system (eV)
  ---------------------------------------------------
  alpha Z        PSCENC =        30.28014394
  Ewald energy   TEWEN  =     14973.24208224
  -Hartree energ DENC   =    -16962.98885323
  -exchange      EXHF   =         0.00000000
  -V(xc)+E(xc)   XCENC  =        43.09071082
  PAW double counting   =      6265.61113021    -6168.60005432
  entropy T*S    EENTRO =        -0.00000005
  eigenvalues    EBANDS =      -357.42948823
  atomic energy  EATOM  =      2112.48864025
  Solvation  Ediel_sol  =         0.00000000
  ---------------------------------------------------
  free energy    TOTEN  =       -64.30568837 eV

  energy without entropy =      -64.30568833  energy(sigma->0) =      -64.30568835


--------------------------------------------------------------------------------------------------------




--------------------------------------- Iteration      1(  11)  ---------------------------------------


    POTLOK:  cpu time    0.0142: real time    0.0143
    SETDIJ:  cpu time    0.0645: real time    0.0645
     EDDAV:  cpu time    0.4250: real time    0.4255
       DOS:  cpu time    0.0004: real time    0.0004
    CHARGE:  cpu time    0.0223: real time    0.0223
    MIXING:  cpu time    0.0007: real time    0.0007
    --------------------------------------------
      LOOP:  cpu time    0.5272: real time    0.5278

 eigenvalue-minimisations  :   928
 total energy-change (2. order) : 0.2318641E-03  (-0.3830668E-04)
 number of electron      59.9999940 magnetization 
 augmentation part       -6.4467695 magnetization 

 Broyden mixing:
  rms(total) = 0.39816E-02    rms(broyden)= 0.39816E-02
  rms(prec ) = 0.45994E-02
  weight for this iteration     100.00

 eigenvalues of (default mixing * dielectric matrix)
  average eigenvalue GAMMA=   1.6085
  2.5424  2.5424  1.5371  1.0890  1.0890  0.8514

 Free energy of the ion-electron system (eV)
  ---------------------------------------------------
  alpha Z        PSCENC =        30.28014394
  Ewald energy   TEWEN  =     14973.24208224
  -Hartree energ DENC   =    -16964.85922091
  -exchange      EXHF   =         0.00000000
  -V(xc)+E(xc)   XCENC  =        43.12172284
  PAW double counting   =      6286.13374266    -6189.11725985
  entropy T*S    EENTRO =        -0.00000006
  eigenvalues    EBANDS =      -355.59530760
  atomic energy  EATOM  =      2112.48864025
  Solvation  Ediel_sol  =         0.00000000
  ---------------------------------------------------
  free energy    TOTEN  =       -64.30545651 eV

  energy without entropy =      -64.30545645  energy(sigma->0) =      -64.30545648


--------------------------------------------------------------------------------------------------------




--------------------------------------- Iteration      1(  12)  ---------------------------------------


    POTLOK:  cpu time    0.0131: real time    0.0150
    SETDIJ:  cpu time    0.0645: real time    0.0647
     EDDAV:  cpu time    0.4146: real time    0.4153
       DOS:  cpu time    0.0004: real time    0.0004
    CHARGE:  cpu time    0.0225: real time    0.0225
    MIXING:  cpu time    0.0007: real time    0.0007
    --------------------------------------------
      LOOP:  cpu time    0.5158: real time    0.5186

 eigenvalue-minimisations  :   888
 total energy-change (2. order) :-0.7038880E-04  (-0.5196396E-05)
 number of electron      59.9999940 magnetization 
 augmentation part       -6.4467197 magnetization 

 Broyden mixing:
  rms(total) = 0.15575E-02    rms(broyden)= 0.15575E-02
  rms(prec ) = 0.23889E-02
  weight for this iteration     100.00

 eigenvalues of (default mixing * dielectric matrix)
  average eigenvalue GAMMA=   1.7687
  2.9724  2.4715  1.6505  1.6505  1.3632  1.1364  1.1364

 Free energy of the ion-electron system (eV)
  ---------------------------------------------------
  alpha Z        PSCENC =        30.28014394
  Ewald energy   TEWEN  =     14973.24208224
  -Hartree energ DENC   =    -16965.54259533
  -exchange      EXHF   =         0.00000000
  -V(xc)+E(xc)   XCENC  =        43.12655942
  PAW double counting   =      6289.91237916    -6192.89596421
  entropy T*S    EENTRO =        -0.00000007
  eigenvalues    EBANDS =      -354.91677230
  atomic energy  EATOM  =      2112.48864025
  Solvation  Ediel_sol  =         0.00000000
  ---------------------------------------------------
  free energy    TOTEN  =       -64.30552690 eV

  energy without entropy =      -64.30552683  energy(sigma->0) =      -64.30552687


--------------------------------------------------------------------------------------------------------




--------------------------------------- Iteration      1(  13)  ---------------------------------------


    POTLOK:  cpu time    0.0126: real time    0.0143
    SETDIJ:  cpu time    0.0647: real time    0.0647
     EDDAV:  cpu time    0.4023: real time    0.4028
       DOS:  cpu time    0.0004: real time    0.0004
    CHARGE:  cpu time    0.0224: real time    0.0224
    MIXING:  cpu time    0.0008: real time    0.0008
    --------------------------------------------
      LOOP:  cpu time    0.5032: real time    0.5055

 eigenvalue-minimisations  :   840
 total energy-change (2. order) :-0.2130014E-03  (-0.8068738E-05)
 number of electron      59.9999940 magnetization 
 augmentation part       -6.4464631 magnetization 

 Broyden mixing:
  rms(total) = 0.27177E-02    rms(broyden)= 0.27177E-02
  rms(prec ) = 0.28815E-02
  weight for this iteration     100.00

 eigenvalues of (default mixing * dielectric matrix)
  average eigenvalue GAMMA=   1.8247
  3.8225  2.5678  2.2586  1.6766  1.0491  1.0491  1.0869  1.0869

 Free energy of the ion-electron system (eV)
  ---------------------------------------------------
  alpha Z        PSCENC =        30.28014394
  Ewald energy   TEWEN  =     14973.24208224
  -Hartree energ DENC   =    -16966.89535558
  -exchange      EXHF   =         0.00000000
  -V(xc)+E(xc)   XCENC  =        43.13711134
  PAW double counting   =      6295.59123434    -6198.57458109
  entropy T*S    EENTRO =        -0.00000008
  eigenvalues    EBANDS =      -353.57501525
  atomic energy  EATOM  =      2112.48864025
  Solvation  Ediel_sol  =         0.00000000
  ---------------------------------------------------
  free energy    TOTEN  =       -64.30573990 eV

  energy without entropy =      -64.30573982  energy(sigma->0) =      -64.30573986


--------------------------------------------------------------------------------------------------------




--------------------------------------- Iteration      1(  14)  ---------------------------------------


    POTLOK:  cpu time    0.0126: real time    0.0141
    SETDIJ:  cpu time    0.0647: real time    0.0647
     EDDAV:  cpu time    0.3827: real time    0.3833
       DOS:  cpu time    0.0004: real time    0.0004
    CHARGE:  cpu time    0.0218: real time    0.0218
    MIXING:  cpu time    0.0008: real time    0.0008
    --------------------------------------------
      LOOP:  cpu time    0.4830: real time    0.4851

 eigenvalue-minimisations  :   800
 total energy-change (2. order) :-0.1578442E-03  (-0.2910224E-05)
 number of electron      59.9999940 magnetization 
 augmentation part       -6.4463213 magnetization 

 Broyden mixing:
  rms(total) = 0.27692E-02    rms(broyden)= 0.27692E-02
  rms(prec ) = 0.28370E-02
  weight for this iteration     100.00

 eigenvalues of (default mixing * dielectric matrix)
  average eigenvalue GAMMA=   1.6370
  3.7237  2.5325  2.2783  1.7011  1.1047  1.1047  1.0406  1.0406  0.2072

 Free energy of the ion-electron system (eV)
  ---------------------------------------------------
  alpha Z        PSCENC =        30.28014394
  Ewald energy   TEWEN  =     14973.24208224
  -Hartree energ DENC   =    -16967.48073444
  -exchange      EXHF   =         0.00000000
  -V(xc)+E(xc)   XCENC  =        43.13945360
  PAW double counting   =      6293.78615020    -6196.76968520
  entropy T*S    EENTRO =        -0.00000008
  eigenvalues    EBANDS =      -352.99194825
  atomic energy  EATOM  =      2112.48864025
  Solvation  Ediel_sol  =         0.00000000
  ---------------------------------------------------
  free energy    TOTEN  =       -64.30589774 eV

  energy without entropy =      -64.30589766  energy(sigma->0) =      -64.30589770


--------------------------------------------------------------------------------------------------------




--------------------------------------- Iteration      1(  15)  ---------------------------------------


    POTLOK:  cpu time    0.0127: real time    0.0143
    SETDIJ:  cpu time    0.0646: real time    0.0646
     EDDAV:  cpu time    0.3062: real time    0.3067
       DOS:  cpu time    0.0004: real time    0.0004
    CHARGE:  cpu time    0.0226: real time    0.0226
    MIXING:  cpu time    0.0008: real time    0.0008
    --------------------------------------------
      LOOP:  cpu time    0.4073: real time    0.4094

 eigenvalue-minimisations  :   560
 total energy-change (2. order) :-0.3082787E-04  (-0.2086320E-06)
 number of electron      59.9999940 magnetization 
 augmentation part       -6.4463412 magnetization 

 Broyden mixing:
  rms(total) = 0.20810E-02    rms(broyden)= 0.20810E-02
  rms(prec ) = 0.21619E-02
  weight for this iteration     100.00

 eigenvalues of (default mixing * dielectric matrix)
  average eigenvalue GAMMA=   1.9699
  4.7562  3.0074  2.5555  1.8265  1.8265  1.3869  1.3869  1.0673  0.9430  0.9430

 Free energy of the ion-electron system (eV)
  ---------------------------------------------------
  alpha Z        PSCENC =        30.28014394
  Ewald energy   TEWEN  =     14973.24208224
  -Hartree energ DENC   =    -16967.50190840
  -exchange      EXHF   =         0.00000000
  -V(xc)+E(xc)   XCENC  =        43.13903464
  PAW double counting   =      6292.74329776    -6195.72679998
  entropy T*S    EENTRO =        -0.00000009
  eigenvalues    EBANDS =      -352.97041894
  atomic energy  EATOM  =      2112.48864025
  Solvation  Ediel_sol  =         0.00000000
  ---------------------------------------------------
  free energy    TOTEN  =       -64.30592857 eV

  energy without entropy =      -64.30592849  energy(sigma->0) =      -64.30592853


--------------------------------------------------------------------------------------------------------




--------------------------------------- Iteration      1(  16)  ---------------------------------------


    POTLOK:  cpu time    0.0131: real time    0.0145
    SETDIJ:  cpu time    0.0645: real time    0.0645
     EDDAV:  cpu time    0.3897: real time    0.3904
       DOS:  cpu time    0.0004: real time    0.0004
    CHARGE:  cpu time    0.0226: real time    0.0226
    MIXING:  cpu time    0.0010: real time    0.0010
    --------------------------------------------
      LOOP:  cpu time    0.4912: real time    0.4934

 eigenvalue-minimisations  :   720
 total energy-change (2. order) :-0.2567621E-03  (-0.2159332E-05)
 number of electron      59.9999940 magnetization 
 augmentation part       -6.4462782 magnetization 

 Broyden mixing:
  rms(total) = 0.16082E-02    rms(broyden)= 0.16082E-02
  rms(prec ) = 0.16195E-02
  weight for this iteration     100.00

 eigenvalues of (default mixing * dielectric matrix)
  average eigenvalue GAMMA=   1.9848
  6.5366  2.7616  2.4267  1.9202  1.9202  1.3077  1.3077  1.0877  0.8465  0.8589
  0.8589

 Free energy of the ion-electron system (eV)
  ---------------------------------------------------
  alpha Z        PSCENC =        30.28014394
  Ewald energy   TEWEN  =     14973.24208224
  -Hartree energ DENC   =    -16968.13998420
  -exchange      EXHF   =         0.00000000
  -V(xc)+E(xc)   XCENC  =        43.13909584
  PAW double counting   =      6287.02780494    -6190.01115456
  entropy T*S    EENTRO =        -0.00000009
  eigenvalues    EBANDS =      -352.33281369
  atomic energy  EATOM  =      2112.48864025
  Solvation  Ediel_sol  =         0.00000000
  ---------------------------------------------------
  free energy    TOTEN  =       -64.30618533 eV

  energy without entropy =      -64.30618525  energy(sigma->0) =      -64.30618529


--------------------------------------------------------------------------------------------------------




--------------------------------------- Iteration      1(  17)  ---------------------------------------


    POTLOK:  cpu time    0.0301: real time    0.0303
    SETDIJ:  cpu time    0.0648: real time    0.0648
     EDDAV:  cpu time    0.3360: real time    0.3364
       DOS:  cpu time    0.0004: real time    0.0004
    CHARGE:  cpu time    0.0225: real time    0.0225
    MIXING:  cpu time    0.0009: real time    0.0009
    --------------------------------------------
      LOOP:  cpu time    0.4547: real time    0.4553

 eigenvalue-minimisations  :   640
 total energy-change (2. order) :-0.2078263E-04  (-0.2527294E-06)
 number of electron      59.9999940 magnetization 
 augmentation part       -6.4462983 magnetization 

 Broyden mixing:
  rms(total) = 0.14877E-02    rms(broyden)= 0.14877E-02
  rms(prec ) = 0.14945E-02
  weight for this iteration     100.00

 eigenvalues of (default mixing * dielectric matrix)
  average eigenvalue GAMMA=   1.8248
  6.5104  2.7412  2.4304  1.9044  1.9044  1.2904  1.2904  1.1079  0.7965  0.8191
  0.8191  0.2841

 Free energy of the ion-electron system (eV)
  ---------------------------------------------------
  alpha Z        PSCENC =        30.28014394
  Ewald energy   TEWEN  =     14973.24208224
  -Hartree energ DENC   =    -16968.25152172
  -exchange      EXHF   =         0.00000000
  -V(xc)+E(xc)   XCENC  =        43.13924689
  PAW double counting   =      6286.73079281    -6189.71379050
  entropy T*S    EENTRO =        -0.00000009
  eigenvalues    EBANDS =      -352.22179993
  atomic energy  EATOM  =      2112.48864025
  Solvation  Ediel_sol  =         0.00000000
  ---------------------------------------------------
  free energy    TOTEN  =       -64.30620612 eV

  energy without entropy =      -64.30620603  energy(sigma->0) =      -64.30620607


--------------------------------------------------------------------------------------------------------




--------------------------------------- Iteration      1(  18)  ---------------------------------------


    POTLOK:  cpu time    0.0128: real time    0.0143
    SETDIJ:  cpu time    0.0646: real time    0.0648
     EDDAV:  cpu time    0.3214: real time    0.3221
       DOS:  cpu time    0.0004: real time    0.0004
    --------------------------------------------
      LOOP:  cpu time    0.4826: real time    0.4849

 eigenvalue-minimisations  :   552
 total energy-change (2. order) :-0.5814746E-05  (-0.3571203E-07)
 number of electron      59.9999940 magnetization 
 augmentation part       -6.4462983 magnetization 

 Free energy of the ion-electron system (eV)
  ---------------------------------------------------
  alpha Z        PSCENC =        30.28014394
  Ewald energy   TEWEN  =     14973.24208224
  -Hartree energ DENC   =    -16968.25562779
  -exchange      EXHF   =         0.00000000
  -V(xc)+E(xc)   XCENC  =        43.13932140
  PAW double counting   =      6287.22094309    -6190.20392299
  entropy T*S    EENTRO =        -0.00000009
  eigenvalues    EBANDS =      -352.21779198
  atomic energy  EATOM  =      2112.48864025
  Solvation  Ediel_sol  =         0.00000000
  ---------------------------------------------------
  free energy    TOTEN  =       -64.30621193 eV

  energy without entropy =      -64.30621184  energy(sigma->0) =      -64.30621189


--------------------------------------------------------------------------------------------------------




 the core state eigenenergies are
   1-  1s  -2078.3826  2s   -168.4151  2p   -118.9005
   2-  1s  -2078.3826  2s   -168.4151  2p   -118.9005
   3-  1s  -2078.4421  2s   -168.4684  2p   -118.9544
   4-  1s  -2078.4421  2s   -168.4684  2p   -118.9544
   5-  1s  -2078.4737  2s   -168.5007  2p   -118.9867
   6-  1s  -2078.4737  2s   -168.5007  2p   -118.9867
   7-  1s  -2078.4737  2s   -168.5007  2p   -118.9867
   8-  1s  -2078.4737  2s   -168.5007  2p   -118.9867
   9-  1s  -2078.4421  2s   -168.4684  2p   -118.9544
  10-  1s  -2078.4421  2s   -168.4684  2p   -118.9544
  11-  1s  -2078.3826  2s   -168.4151  2p   -118.9005
  12-  1s  -2078.3826  2s   -168.4151  2p   -118.9005
 
 E-fermi :   0.9406     XC(G=0):  -5.1358     alpha+bet : -5.5572


 k-point     1 :       0.0000    0.0000    0.0000
  band No.  band energies     occupation 
      1     -14.8533      2.00000
      2     -14.7324      2.00000
      3     -14.6640      2.00000
      4     -12.3723      2.00000
      5     -12.1259      2.00000
      6     -11.9465      2.00000
      7      -8.6048      2.00000
      8      -8.5200      2.00000
      9      -8.4900      2.00000
     10      -5.9233      2.00000
     11      -5.5441      2.00000
     12      -5.1260      2.00000
     13      -4.5040      2.00000
     14      -4.5033      2.00000
     15      -4.1853      2.00000
     16      -4.1419      2.00000
     17      -3.9947      2.00000
     18      -3.9198      2.00000
     19      -3.3922      2.00000
     20      -3.2907      2.00000
     21      -3.2412      2.00000
     22      -1.8789      2.00000
     23      -1.7348      2.00000
     24      -1.6235      2.00000
     25      -1.5871      2.00000
     26      -1.5024      2.00000
     27      -1.1069      2.00000
     28      -0.2484      2.00000
     29       0.3558      2.00000
     30       0.9110      1.99997
     31       0.9702      0.00003
     32       1.4981      0.00000
     33       1.5235      0.00000
     34       1.6980      0.00000
     35       1.7062      0.00000
     36       1.8617      0.00000
     37       2.7306      0.00000
     38       2.9016      0.00000
     39       2.9720      0.00000
     40       3.7094      0.00000

 k-point     2 :       0.2000    0.0000    0.0000
  band No.  band energies     occupation 
      1     -14.3883      2.00000
      2     -14.2691      2.00000
      3     -14.2026      2.00000
      4     -11.8879      2.00000
      5     -11.6435      2.00000
      6     -11.4657      2.00000
      7      -9.0688      2.00000
      8      -9.0120      2.00000
      9      -9.0114      2.00000
     10      -5.5341      2.00000
     11      -5.3344      2.00000
     12      -5.2435      2.00000
     13      -5.1995      2.00000
     14      -5.1668      2.00000
     15      -4.7834      2.00000
     16      -4.6449      2.00000
     17      -4.5882      2.00000
     18      -4.5695      2.00000
     19      -4.0949      2.00000
     20      -3.7588      2.00000
     21      -3.6167      2.00000
     22      -2.7993      2.00000
     23      -2.5810      2.00000
     24      -2.3619      2.00000
     25      -1.7031      2.00000
     26      -1.4258      2.00000
     27      -0.9361      2.00000
     28      -0.2562      2.00000
     29       0.0639      2.00000
     30       0.2456      2.00000
     31       1.3611      0.00000
     32       1.5883      0.00000
     33       1.8276      0.00000
     34       2.1007      0.00000
     35       2.3094      0.00000
     36       2.4013      0.00000
     37       3.9521      0.00000
     38       4.1576      0.00000
     39       4.1954      0.00000
     40       4.2666      0.00000

 k-point     3 :       0.4000    0.0000    0.0000
  band No.  band energies     occupation 
      1     -13.0320      2.00000
      2     -12.9194      2.00000
      3     -12.8599      2.00000
      4     -10.9764      2.00000
      5     -10.8832      2.00000
      6     -10.8443      2.00000
      7     -10.4530      2.00000
      8     -10.2160      2.00000
      9     -10.0440      2.00000
     10      -8.1449      2.00000
     11      -7.9299      2.00000
     12      -7.7761      2.00000
     13      -4.7339      2.00000
     14      -4.6681      2.00000
     15      -4.6627      2.00000
     16      -4.6271      2.00000
     17      -4.3570      2.00000
     18      -4.1609      2.00000
     19      -3.0249      2.00000
     20      -2.8204      2.00000
     21      -2.7228      2.00000
     22      -2.4981      2.00000
     23      -2.2618      2.00000
     24      -2.1188      2.00000
     25      -1.9821      2.00000
     26      -1.7221      2.00000
     27      -1.4669      2.00000
     28      -1.4578      2.00000
     29      -1.2402      2.00000
     30      -1.0476      2.00000
     31       1.3218      0.00000
     32       1.3480      0.00000
     33       1.5955      0.00000
     34       1.7681      0.00000
     35       2.0277      0.00000
     36       2.0307      0.00000
     37       2.0384      0.00000
     38       2.1539      0.00000
     39       2.3226      0.00000
     40       3.0507      0.00000

 k-point     4 :       0.0000    0.0000    0.2500
  band No.  band energies     occupation 
      1     -14.5019      2.00000
      2     -14.3882      2.00000
      3     -14.3276      2.00000
      4     -12.5948      2.00000
      5     -12.4603      2.00000
      6     -12.4000      2.00000
      7      -9.0042      2.00000
      8      -8.8469      2.00000
      9      -8.7246      2.00000
     10      -6.9106      2.00000
     11      -6.6372      2.00000
     12      -6.4697      2.00000
     13      -4.5475      2.00000
     14      -4.0364      2.00000
     15      -3.3744      2.00000
     16      -3.1150      2.00000
     17      -3.0622      2.00000
     18      -3.0219      2.00000
     19      -2.9813      2.00000
     20      -2.7172      2.00000
     21      -2.7161      2.00000
     22      -1.8633      2.00000
     23      -1.7620      2.00000
     24      -1.7324      2.00000
     25      -1.7237      2.00000
     26      -1.0733      2.00000
     27      -0.4247      2.00000
     28      -0.2659      2.00000
     29      -0.2030      2.00000
     30      -0.0256      2.00000
     31       1.6803      0.00000
     32       2.0072      0.00000
     33       2.1148      0.00000
     34       2.2075      0.00000
     35       2.2581      0.00000
     36       2.2617      0.00000
     37       2.3693      0.00000
     38       2.7100      0.00000
     39       3.2604      0.00000
     40       3.3345      0.00000

 k-point     5 :       0.2000    0.0000    0.2500
  band No.  band energies     occupation 
      1     -14.0440      2.00000
      2     -13.9321      2.00000
      3     -13.8733      2.00000
      4     -12.1429      2.00000
      5     -12.0151      2.00000
      6     -11.9611      2.00000
      7      -9.0949      2.00000
      8      -8.9436      2.00000
      9      -8.8345      2.00000
     10      -6.7878      2.00000
     11      -6.5886      2.00000
     12      -6.4650      2.00000
     13      -5.3061      2.00000
     14      -5.1456      2.00000
     15      -5.0336      2.00000
     16      -4.6391      2.00000
     17      -4.2627      2.00000
     18      -4.0966      2.00000
     19      -3.4754      2.00000
     20      -3.2944      2.00000
     21      -2.9254      2.00000
     22      -2.2705      2.00000
     23      -2.1488      2.00000
     24      -2.1077      2.00000
     25      -1.4162      2.00000
     26      -1.1524      2.00000
     27      -0.9648      2.00000
     28      -0.9316      2.00000
     29      -0.6214      2.00000
     30      -0.4270      2.00000
     31       2.0411      0.00000
     32       2.2838      0.00000
     33       2.4466      0.00000
     34       2.8562      0.00000
     35       2.8748      0.00000
     36       2.9912      0.00000
     37       3.1795      0.00000
     38       3.2323      0.00000
     39       3.5942      0.00000
     40       4.7266      0.00000

 k-point     6 :       0.4000    0.0000    0.2500
  band No.  band energies     occupation 
      1     -12.7299      2.00000
      2     -12.6259      2.00000
      3     -12.5755      2.00000
      4     -11.2347      2.00000
      5     -11.1561      2.00000
      6     -11.1380      2.00000
      7     -10.0344      2.00000
      8      -9.8518      2.00000
      9      -9.7311      2.00000
     10      -8.3148      2.00000
     11      -8.1893      2.00000
     12      -8.1307      2.00000
     13      -5.6259      2.00000
     14      -5.4549      2.00000
     15      -5.3118      2.00000
     16      -4.6303      2.00000
     17      -4.5484      2.00000
     18      -4.4894      2.00000
     19      -3.6595      2.00000
     20      -3.6166      2.00000
     21      -3.5148      2.00000
     22      -2.9423      2.00000
     23      -2.7503      2.00000
     24      -2.6807      2.00000
     25      -2.1883      2.00000
     26      -1.7437      2.00000
     27      -1.2242      2.00000
     28      -0.8811      2.00000
     29      -0.8224      2.00000
     30      -0.7415      2.00000
     31       1.5687      0.00000
     32       1.8888      0.00000
     33       1.9070      0.00000
     34       2.7674      0.00000
     35       2.9621      0.00000
     36       2.9689      0.00000
     37       2.9780      0.00000
     38       3.2199      0.00000
     39       3.2440      0.00000
     40       3.6242      0.00000

 k-point     7 :       0.0000    0.0000    0.5000
  band No.  band energies     occupation 
      1     -13.5456      2.00000
      2     -13.5456      2.00000
      3     -13.4751      2.00000
      4     -13.4751      2.00000
      5     -13.4291      2.00000
      6     -13.4291      2.00000
      7      -8.5696      2.00000
      8      -8.5696      2.00000
      9      -8.2526      2.00000
     10      -8.2526      2.00000
     11      -7.9793      2.00000
     12      -7.9793      2.00000
     13      -3.5900      2.00000
     14      -3.5900      2.00000
     15      -2.8268      2.00000
     16      -2.8268      2.00000
     17      -2.4212      2.00000
     18      -2.4212      2.00000
     19      -2.3763      2.00000
     20      -2.3763      2.00000
     21      -2.3313      2.00000
     22      -2.3313      2.00000
     23      -2.0219      2.00000
     24      -2.0219      2.00000
     25      -0.7265      2.00000
     26      -0.7265      2.00000
     27      -0.5181      2.00000
     28      -0.5181      2.00000
     29      -0.4460      2.00000
     30      -0.4460      2.00000
     31       2.1904      0.00000
     32       2.1904      0.00000
     33       2.2348      0.00000
     34       2.2348      0.00000
     35       2.2870      0.00000
     36       2.2870      0.00000
     37       3.4196      0.00000
     38       3.4204      0.00000
     39       3.5671      0.00000
     40       3.5790      0.00000

 k-point     8 :       0.2000    0.0000    0.5000
  band No.  band energies     occupation 
      1     -13.1073      2.00000
      2     -13.1073      2.00000
      3     -13.0372      2.00000
      4     -13.0372      2.00000
      5     -12.9926      2.00000
      6     -12.9926      2.00000
      7      -8.3902      2.00000
      8      -8.3902      2.00000
      9      -8.1159      2.00000
     10      -8.1159      2.00000
     11      -7.8960      2.00000
     12      -7.8960      2.00000
     13      -4.8151      2.00000
     14      -4.8151      2.00000
     15      -4.6861      2.00000
     16      -4.6861      2.00000
     17      -4.5759      2.00000
     18      -4.5759      2.00000
     19      -3.2810      2.00000
     20      -3.2810      2.00000
     21      -2.6021      2.00000
     22      -2.6021      2.00000
     23      -2.0048      2.00000
     24      -2.0048      2.00000
     25      -1.0946      2.00000
     26      -1.0946      2.00000
     27      -0.8556      2.00000
     28      -0.8556      2.00000
     29      -0.5929      2.00000
     30      -0.5929      2.00000
     31       2.7946      0.00000
     32       2.7946      0.00000
     33       3.1430      0.00000
     34       3.1430      0.00000
     35       3.2315      0.00000
     36       3.2315      0.00000
     37       3.7297      0.00000
     38       3.7297      0.00000
     39       4.0402      0.00000
     40       4.0402      0.00000

 k-point     9 :       0.4000    0.0000    0.5000
  band No.  band energies     occupation 
      1     -11.9562      2.00000
      2     -11.9562      2.00000
      3     -11.8919      2.00000
      4     -11.8919      2.00000
      5     -11.8595      2.00000
      6     -11.8595      2.00000
      7      -9.1062      2.00000
      8      -9.1062      2.00000
      9      -9.0053      2.00000
     10      -9.0053      2.00000
     11      -8.9626      2.00000
     12      -8.9626      2.00000
     13      -5.6482      2.00000
     14      -5.6482      2.00000
     15      -5.3567      2.00000
     16      -5.3567      2.00000
     17      -5.0989      2.00000
     18      -5.0989      2.00000
     19      -4.0055      2.00000
     20      -4.0055      2.00000
     21      -3.6899      2.00000
     22      -3.6899      2.00000
     23      -3.4267      2.00000
     24      -3.4267      2.00000
     25      -1.6890      2.00000
     26      -1.6890      2.00000
     27      -1.1955      2.00000
     28      -1.1955      2.00000
     29      -0.8861      2.00000
     30      -0.8861      2.00000
     31       2.6169      0.00000
     32       2.6169      0.00000
     33       2.9217      0.00000
     34       2.9217      0.00000
     35       3.4877      0.00000
     36       3.4877      0.00000
     37       4.3714      0.00000
     38       4.3786      0.00000
     39       4.4089      0.00000
     40       4.4538      0.00000


--------------------------------------------------------------------------------------------------------


 soft charge-density along one line, spin component           1
         0         1         2         3         4         5         6         7         8         9
 total charge-density along one line
 
 pseudopotential strength for first ion, spin component:           1
 29.684  37.030   0.035  -0.033  -0.000   0.055  -0.052  -0.000
 37.030  46.198   0.044  -0.041   0.000   0.068  -0.064   0.000
  0.035   0.044   6.554   0.006  -0.000  10.135   0.009  -0.000
 -0.033  -0.041   0.006   6.558  -0.000   0.009  10.141  -0.000
 -0.000   0.000  -0.000  -0.000   6.561  -0.000  -0.000  10.147
  0.055   0.068  10.135   0.009  -0.000  15.692   0.014  -0.000
 -0.052  -0.064   0.009  10.141  -0.000   0.014  15.701  -0.000
 -0.000   0.000  -0.000  -0.000  10.147  -0.000  -0.000  15.710
 total augmentation occupancy for first ion, spin component:           1
  8.312  -4.740   1.853  -1.945   0.000  -0.591   0.650   0.000
 -4.740   3.443  -1.593   1.651   0.000   0.437  -0.478  -0.000
  1.853  -1.593   3.130   0.194   0.000  -0.825  -0.162   0.000
 -1.945   1.651   0.194   3.267   0.000  -0.161  -0.923   0.000
  0.000   0.000   0.000   0.000   3.403   0.000   0.000  -1.026
 -0.591   0.437  -0.825  -0.161   0.000   0.259   0.069   0.000
  0.650  -0.478  -0.162  -0.923   0.000   0.069   0.298   0.000
  0.000   0.000   0.000   0.000  -1.026   0.000   0.000   0.339


------------------------ aborting loop because EDIFF is reached ----------------------------------------


 


 total charge     
 
# of ion       s       p       d       tot
------------------------------------------
    1        1.082   1.376   0.000   2.458
    2        1.082   1.376   0.000   2.458
    3        1.084   1.372   0.000   2.456
    4        1.084   1.372   0.000   2.456
    5        1.084   1.371   0.000   2.456
    6        1.084   1.371   0.000   2.456
    7        1.084   1.371   0.000   2.456
    8        1.084   1.371   0.000   2.456
    9        1.084   1.372   0.000   2.456
   10        1.084   1.372   0.000   2.456
   11        1.082   1.376   0.000   2.458
   12        1.082   1.376   0.000   2.458
--------------------------------------------------
tot         12.999  16.479   0.000  29.478
 
    CHARGE:  cpu time    0.0223: real time    0.0223
    FORLOC:  cpu time    0.0012: real time    0.0012
    FORNL :  cpu time    0.0800: real time    0.0800
    STRESS:  cpu time    0.1299: real time    0.1299
    FORCOR:  cpu time    0.0131: real time    0.0131
    FORHAR:  cpu time    0.0039: real time    0.0039
    MIXING:  cpu time    0.0010: real time    0.0010
    OFIELD:  cpu time    0.0000: real time    0.0000

  DFT-D2 method for vdW energy calculation
  -------------------------------------------------------------------

  Parameters of vdW forcefield:
         C6(Jnm^6/mol)     R0(A)
   -----------------------------
   P        7.840          1.705

  IVDW =  10
  VDW_RADIUS =    50.000 A
  VDW_S6 =     0.750
  VDW_SR =     1.000
  VDW_D =    20.000
  LVDW_EWALD = F

  Number of pair interactions contributing to vdW energy:   88382
  Edisp (eV):   -2.17394
    FORVDW:  cpu time    0.0524: real time    0.0532

  FORCE on cell =-STRESS in cart. coord.  units (eV):
  Direction    XX          YY          ZZ          XY          YZ          ZX
  --------------------------------------------------------------------------------------
  Alpha Z    30.28014    30.28014    30.28014
  Ewald   16591.01473-18044.25022 16426.47569    -0.00000     0.00000     0.00000
  Hartree 16898.25697-16771.01792 16841.12925    -0.00000    -0.00000    -0.00000
  E(xc)    -201.45625  -202.69580  -201.61262     0.00000     0.00000    -0.00000
  Local  -34441.70509 33820.49849-34239.43487    -0.00000     0.00000     0.00000
  n-local   680.15269   678.12817   674.37571     0.00000     0.00000     1.55390
  augment  -126.53392  -130.45810  -128.76305     0.00000    -0.00000     0.00000
  Kinetic   571.20436   619.97507   599.30949     0.00000     0.00000     6.42126
  Fock        0.00000     0.00000     0.00000     0.00000     0.00000     0.00000
  vdW        -0.23282    -1.41063    -0.99576    -0.00000    -0.00000     0.00000
  -------------------------------------------------------------------------------------
  Total       0.98083    -0.95080     0.76398     0.00000     0.00000     0.00000
  in kB       3.29588    -3.19498     2.56720     0.00000     0.00000     0.00000
  external pressure =        0.89 kB  Pullay stress =        0.00 kB


 VOLUME and BASIS-vectors are now :
 -----------------------------------------------------------------------------
  energy-cutoff  :      400.00
  volume of cell :      476.80
      direct lattice vectors                 reciprocal lattice vectors
     3.342886000  0.000000000  0.000000000     0.299142717  0.000000000  0.000000000
     0.000000000 32.602409000  0.000000000     0.000000000  0.030672580  0.000000000
     0.000000000  0.000000000  4.374831000     0.000000000  0.000000000  0.228580258

  length of vectors
     3.342886000 32.602409000  4.374831000     0.299142717  0.030672580  0.228580258


 FORCES acting on ions
    electron-ion (+dipol)            ewald-force                    non-local-force                 convergence-correction
 -----------------------------------------------------------------------------------------------
   -.789E-15 0.823E+03 -.290E+02   0.114E-14 -.828E+03 0.342E+02   0.555E-16 0.582E+01 -.518E+01   0.107E-14 -.658E-03 -.432E-03
   0.403E-14 0.823E+03 0.290E+02   -.458E-14 -.828E+03 -.342E+02   -.278E-16 0.582E+01 0.518E+01   0.185E-14 -.658E-03 0.432E-03
   -.372E-14 0.459E+03 0.260E+02   0.181E-14 -.453E+03 -.313E+02   0.278E-16 -.551E+01 0.523E+01   -.285E-14 -.173E-02 -.441E-03
   0.454E-14 0.459E+03 -.260E+02   -.613E-14 -.453E+03 0.313E+02   0.000E+00 -.551E+01 -.523E+01   0.280E-14 -.173E-02 0.441E-03
   0.643E-14 0.183E+03 -.262E+02   0.754E-15 -.189E+03 0.314E+02   -.555E-16 0.545E+01 -.521E+01   0.339E-14 0.276E-02 -.480E-03
   0.876E-15 0.183E+03 0.262E+02   -.638E-14 -.189E+03 -.314E+02   0.278E-16 0.545E+01 0.521E+01   0.127E-15 0.276E-02 0.480E-03
   0.192E-14 -.183E+03 0.262E+02   0.197E-14 0.189E+03 -.314E+02   0.555E-16 -.545E+01 0.521E+01   0.327E-14 -.276E-02 0.480E-03
   0.162E-14 -.183E+03 -.262E+02   -.498E-14 0.189E+03 0.314E+02   -.278E-16 -.545E+01 -.521E+01   -.351E-14 -.276E-02 -.480E-03
   0.320E-14 -.459E+03 -.260E+02   0.911E-15 0.453E+03 0.313E+02   -.278E-16 0.551E+01 -.523E+01   0.106E-14 0.173E-02 0.441E-03
   0.330E-14 -.459E+03 0.260E+02   -.523E-14 0.453E+03 -.313E+02   0.000E+00 0.551E+01 0.523E+01   0.204E-14 0.173E-02 -.441E-03
   0.296E-15 -.823E+03 0.290E+02   0.158E-14 0.828E+03 -.342E+02   -.555E-16 -.582E+01 0.518E+01   -.237E-14 0.658E-03 0.432E-03
   0.610E-14 -.823E+03 -.290E+02   -.679E-14 0.828E+03 0.342E+02   0.278E-16 -.582E+01 -.518E+01   0.270E-14 0.658E-03 -.432E-03
 -----------------------------------------------------------------------------------------------
   0.278E-13 0.408E-11 0.425E-10   -.259E-13 0.000E+00 -.711E-14   0.000E+00 0.178E-14 -.178E-14   0.959E-14 -.238E-11 -.756E-14
 
 
 POSITION                                       TOTAL-FORCE (eV/Angst)
 -----------------------------------------------------------------------------------
      0.00000     10.00001      4.02014         0.000000      0.079315     -0.032034
      1.67144     10.00001      2.54211         0.000000      0.079315      0.032034
      0.00000     12.14332      0.35469         0.000000     -0.071522     -0.027059
      1.67144     12.14332      1.83272        -0.000000     -0.071522      0.027059
      1.67144     15.22953      4.02014         0.000000      0.032507      0.012659
      0.00000     15.22953      2.54211         0.000000      0.032507     -0.012659
      1.67144     17.37288      0.35469         0.000000     -0.032507     -0.012659
      0.00000     17.37288      1.83272         0.000000     -0.032507      0.012659
      0.00000     20.45909      4.02014        -0.000000      0.071522      0.027059
      1.67144     20.45909      2.54211         0.000000      0.071522     -0.027059
      0.00000     22.60240      0.35469         0.000000     -0.079315      0.032034
      1.67144     22.60240      1.83272         0.000000     -0.079315     -0.032034
 -----------------------------------------------------------------------------------
    total drift:                                0.000000      0.000000      0.000000


--------------------------------------------------------------------------------------------------------



  FREE ENERGIE OF THE ION-ELECTRON SYSTEM (eV)
  ---------------------------------------------------
  free  energy   TOTEN  =       -66.48015145 eV

  energy  without entropy=      -66.48015137  energy(sigma->0) =      -66.48015141
 


--------------------------------------------------------------------------------------------------------


    POTLOK:  cpu time    0.1181: real time    0.1183


--------------------------------------------------------------------------------------------------------


 writing wavefunctions
     LOOP+:  cpu time   10.2402: real time   10.2807
    4ORBIT:  cpu time    0.0000: real time    0.0000
 


 total charge     
 
# of ion       s       p       d       tot
------------------------------------------
    1        1.082   1.376   0.000   2.458
    2        1.082   1.376   0.000   2.458
    3        1.084   1.372   0.000   2.456
    4        1.084   1.372   0.000   2.456
    5        1.084   1.371   0.000   2.456
    6        1.084   1.371   0.000   2.456
    7        1.084   1.371   0.000   2.456
    8        1.084   1.371   0.000   2.456
    9        1.084   1.372   0.000   2.456
   10        1.084   1.372   0.000   2.456
   11        1.082   1.376   0.000   2.458
   12        1.082   1.376   0.000   2.458
--------------------------------------------------
tot         12.999  16.479   0.000  29.478
 

 total amount of memory used by VASP MPI-rank0    34319. kBytes
=======================================================================

   base      :      30000. kBytes
   nonl-proj :        844. kBytes
   fftplans  :        792. kBytes
   grid      :       1070. kBytes
   one-center:          6. kBytes
   wavefun   :       1607. kBytes
 
  
  
 General timing and accounting informations for this job:
 ========================================================
  
                  Total CPU time used (sec):       15.534
                            User time (sec):       13.508
                          System time (sec):        2.026
                         Elapsed time (sec):       16.181
  
                   Maximum memory used (kb):      104156.
                   Average memory used (kb):           0.
  
                          Minor page faults:        32744
                          Major page faults:            0
                 Voluntary context switches:         2065
