<?xml version="1.0" encoding="ISO-8859-1"?>
<modeling>
 <generator>
  <i name="program" type="string">vasp </i>
  <i name="version" type="string">5.4.4.18Apr17-6-g9f103f2a35  </i>
  <i name="subversion" type="string">(build Jun 20 2017 18:00:50) complex            parallel </i>
  <i name="platform" type="string">LinuxIFC </i>
  <i name="date" type="string">2018 03 16 </i>
  <i name="time" type="string">15:56:14 </i>
 </generator>
 <incar>
  <i type="string" name="SYSTEM"> Generic Input</i>
  <i type="int" name="ISTART">     1</i>
  <i type="string" name="PREC">normal    ! precision level</i>
  <i type="int" name="IALGO">    53</i>
  <i type="string" name="ALGO"> Normal    ! SCF minimisation algorithm</i>
  <i type="int" name="INIWAV">     1</i>
  <i type="int" name="NELM">   200</i>
  <i type="int" name="NELMIN">     2</i>
  <i type="int" name="IBRION">     2</i>
  <i name="EDIFF">      0.00001000</i>
  <i name="EDIFFG">     -0.02000000</i>
  <i type="int" name="NSW">     0</i>
  <i type="int" name="ISIF">     3</i>
  <i type="int" name="IWAVPR">    11</i>
  <i type="int" name="NBLOCK">     1</i>
  <i type="int" name="KBLOCK">    40</i>
  <i name="ENCUT">    400.00000000</i>
  <i type="int" name="NEDOS">  2000</i>
  <i type="int" name="ISMEAR">     0</i>
  <i name="SIGMA">      0.01000000</i>
  <i type="int" name="NWRITE">     2</i>
  <i type="logical" name="LVHAR"> T  </i>
  <i type="int" name="LORBIT">    11</i>
  <i type="logical" name="LASPH"> T  </i>
  <i type="int" name="ICORELEVEL">     1</i>
  <v type="int" name="KPOINT_BSE">    -1     0     0     0</v>
  <i type="int" name="NELM">   200</i>
  <i type="string" name="GGA"> PE        ! PBEsol exchange-correlation</i>
  <i type="logical" name="LASPH"> T  </i>
 </incar>
 <structure name="primitive_cell" >
  <crystal>
   <varray name="basis" >
    <v>       3.34288600       0.00000000       0.00000000 </v>
    <v>       0.00000000      32.60240900       0.00000000 </v>
    <v>       0.00000000       0.00000000       4.37483100 </v>
   </varray>
   <i name="volume">    476.79592902 </i>
   <varray name="rec_basis" >
    <v>       0.29914272       0.00000000       0.00000000 </v>
    <v>       0.00000000       0.03067258       0.00000000 </v>
    <v>       0.00000000       0.00000000       0.22858026 </v>
   </varray>
  </crystal>
  <varray name="positions" >
   <v>       0.00000000       0.30672600      -0.08107600 </v>
   <v>      -0.50000000       0.30672600      -0.41892400 </v>
   <v>       0.00000000       0.37246700       0.08107600 </v>
   <v>      -0.50000000       0.37246700       0.41892400 </v>
   <v>       0.00000000       0.46712900      -0.41892400 </v>
   <v>      -0.50000000       0.46712900      -0.08107600 </v>
   <v>      -0.50000000      -0.46712900       0.08107600 </v>
   <v>       0.00000000      -0.46712900       0.41892400 </v>
   <v>       0.00000000      -0.37246700      -0.08107600 </v>
   <v>      -0.50000000      -0.37246700      -0.41892400 </v>
   <v>       0.00000000      -0.30672600       0.08107600 </v>
   <v>      -0.50000000      -0.30672600       0.41892400 </v>
  </varray>
 </structure>
 <varray name="primitive_index" >
  <v type="int" >        1 </v>
  <v type="int" >        2 </v>
  <v type="int" >        3 </v>
  <v type="int" >        4 </v>
  <v type="int" >        6 </v>
  <v type="int" >        5 </v>
  <v type="int" >        7 </v>
  <v type="int" >        8 </v>
  <v type="int" >        9 </v>
  <v type="int" >       10 </v>
  <v type="int" >       11 </v>
  <v type="int" >       12 </v>
 </varray>
 <kpoints>
  <generation param="Gamma">
   <v type="int" name="divisions">       5        1        4 </v>
   <v name="usershift">      0.00000000       0.00000000       0.00000000 </v>
   <v name="genvec1">      0.20000000       0.00000000       0.00000000 </v>
   <v name="genvec2">      0.00000000       1.00000000       0.00000000 </v>
   <v name="genvec3">      0.00000000       0.00000000       0.25000000 </v>
   <v name="shift">      0.00000000       0.00000000       0.00000000 </v>
  </generation>
  <varray name="kpointlist" >
   <v>       0.00000000       0.00000000       0.00000000 </v>
   <v>       0.20000000       0.00000000       0.00000000 </v>
   <v>       0.40000000       0.00000000       0.00000000 </v>
   <v>       0.00000000       0.00000000       0.25000000 </v>
   <v>       0.20000000       0.00000000       0.25000000 </v>
   <v>       0.40000000       0.00000000       0.25000000 </v>
   <v>       0.00000000       0.00000000       0.50000000 </v>
   <v>       0.20000000       0.00000000       0.50000000 </v>
   <v>       0.40000000       0.00000000       0.50000000 </v>
  </varray>
  <varray name="weights" >
   <v>       0.05000000 </v>
   <v>       0.10000000 </v>
   <v>       0.10000000 </v>
   <v>       0.10000000 </v>
   <v>       0.20000000 </v>
   <v>       0.20000000 </v>
   <v>       0.05000000 </v>
   <v>       0.10000000 </v>
   <v>       0.10000000 </v>
  </varray>
 </kpoints>
 <parameters>
  <separator name="general" >
   <i type="string" name="SYSTEM">Generic Input</i>
   <i type="logical" name="LCOMPAT"> F  </i>
  </separator>
  <separator name="electronic" >
   <i type="string" name="PREC">normal</i>
   <i name="ENMAX">    400.00000000</i>
   <i name="ENAUG">    342.92400000</i>
   <i name="EDIFF">      0.00001000</i>
   <i type="int" name="IALGO">    38</i>
   <i type="int" name="IWAVPR">    11</i>
   <i type="int" name="NBANDS">    40</i>
   <i name="NELECT">     60.00000000</i>
   <i type="int" name="TURBO">     0</i>
   <i type="int" name="IRESTART">     0</i>
   <i type="int" name="NREBOOT">     0</i>
   <i type="int" name="NMIN">     0</i>
   <i name="EREF">      0.00000000</i>
   <separator name="electronic smearing" >
    <i type="int" name="ISMEAR">     0</i>
    <i name="SIGMA">      0.01000000</i>
    <i name="KSPACING">      0.50000000</i>
    <i type="logical" name="KGAMMA"> T  </i>
   </separator>
   <separator name="electronic projectors" >
    <i type="logical" name="LREAL"> F  </i>
    <v name="ROPT">      0.00000000</v>
    <i type="int" name="LMAXPAW">  -100</i>
    <i type="int" name="LMAXMIX">     2</i>
    <i type="logical" name="NLSPLINE"> F  </i>
   </separator>
   <separator name="electronic startup" >
    <i type="int" name="ISTART">     0</i>
    <i type="int" name="ICHARG">     2</i>
    <i type="int" name="INIWAV">     1</i>
   </separator>
   <separator name="electronic spin" >
    <i type="int" name="ISPIN">     1</i>
    <i type="logical" name="LNONCOLLINEAR"> F  </i>
    <v name="MAGMOM">      1.00000000      1.00000000      1.00000000      1.00000000      1.00000000      1.00000000      1.00000000      1.00000000      1.00000000      1.00000000      1.00000000      1.00000000</v>
    <i name="NUPDOWN">     -1.00000000</i>
    <i type="logical" name="LSORBIT"> F  </i>
    <v name="SAXIS">      0.00000000      0.00000000      1.00000000</v>
    <i type="logical" name="LSPIRAL"> F  </i>
    <v name="QSPIRAL">      0.00000000      0.00000000      0.00000000</v>
    <i type="logical" name="LZEROZ"> F  </i>
   </separator>
   <separator name="electronic exchange-correlation" >
    <i type="logical" name="LASPH"> T  </i>
    <i type="logical" name="LMETAGGA"> F  </i>
   </separator>
   <separator name="electronic convergence" >
    <i type="int" name="NELM">   200</i>
    <i type="int" name="NELMDL">     0</i>
    <i type="int" name="NELMIN">     2</i>
    <i name="ENINI">    400.00000000</i>
    <separator name="electronic convergence detail" >
     <i type="logical" name="LDIAG"> T  </i>
     <i type="logical" name="LSUBROT"> F  </i>
     <i name="WEIMIN">      0.00000000</i>
     <i name="EBREAK">      0.00000006</i>
     <i name="DEPER">      0.30000000</i>
     <i type="int" name="NRMM">     4</i>
     <i name="TIME">      0.40000000</i>
    </separator>
   </separator>
   <separator name="electronic mixer" >
    <i name="AMIX">      0.40000000</i>
    <i name="BMIX">      1.00000000</i>
    <i name="AMIN">      0.10000000</i>
    <i name="AMIX_MAG">      1.60000000</i>
    <i name="BMIX_MAG">      1.00000000</i>
    <separator name="electronic mixer details" >
     <i type="int" name="IMIX">     4</i>
     <i type="logical" name="MIXFIRST"> F  </i>
     <i type="int" name="MAXMIX">   -45</i>
     <i name="WC">    100.00000000</i>
     <i type="int" name="INIMIX">     1</i>
     <i type="int" name="MIXPRE">     1</i>
     <i type="int" name="MREMOVE">     5</i>
    </separator>
   </separator>
   <separator name="electronic dipolcorrection" >
    <i type="logical" name="LDIPOL"> F  </i>
    <i type="logical" name="LMONO"> F  </i>
    <i type="int" name="IDIPOL">     0</i>
    <i name="EPSILON">      1.00000000</i>
    <v name="DIPOL">   -100.00000000   -100.00000000   -100.00000000</v>
    <i name="EFIELD">      0.00000000</i>
   </separator>
  </separator>
  <separator name="grids" >
   <i type="int" name="NGX">    16</i>
   <i type="int" name="NGY">   160</i>
   <i type="int" name="NGZ">    24</i>
   <i type="int" name="NGXF">    32</i>
   <i type="int" name="NGYF">   320</i>
   <i type="int" name="NGZF">    48</i>
   <i type="logical" name="ADDGRID"> F  </i>
  </separator>
  <separator name="ionic" >
   <i type="int" name="NSW">     0</i>
   <i type="int" name="IBRION">    -1</i>
   <i type="int" name="MDALGO">     0</i>
   <i type="int" name="ISIF">     3</i>
   <i name="PSTRESS">      0.00000000</i>
   <i name="EDIFFG">     -0.02000000</i>
   <i type="int" name="NFREE">     1</i>
   <i name="POTIM">      0.50000000</i>
   <i name="SMASS">     -3.00000000</i>
   <i name="SCALEE">      1.00000000</i>
  </separator>
  <separator name="ionic md" >
   <i name="TEBEG">      0.00010000</i>
   <i name="TEEND">      0.00010000</i>
   <i type="int" name="NBLOCK">     1</i>
   <i type="int" name="KBLOCK">     1</i>
   <i type="int" name="NPACO">   256</i>
   <i name="APACO">     16.00000000</i>
  </separator>
  <separator name="symmetry" >
   <i type="int" name="ISYM">     2</i>
   <i name="SYMPREC">      0.00001000</i>
  </separator>
  <separator name="dos" >
   <i type="int" name="LORBIT">    11</i>
   <v name="RWIGS">     -1.00000000</v>
   <i type="int" name="NEDOS">  2000</i>
   <i name="EMIN">     10.00000000</i>
   <i name="EMAX">    -10.00000000</i>
   <i name="EFERMI">      0.00000000</i>
  </separator>
  <separator name="writing" >
   <i type="int" name="NWRITE">     2</i>
   <i type="logical" name="LWAVE"> T  </i>
   <i type="logical" name="LDOWNSAMPLE"> F  </i>
   <i type="logical" name="LCHARG"> T  </i>
   <i type="logical" name="LPARD"> F  </i>
   <i type="logical" name="LVTOT"> F  </i>
   <i type="logical" name="LVHAR"> T  </i>
   <i type="logical" name="LELF"> F  </i>
   <i type="logical" name="LOPTICS"> F  </i>
   <v name="STM">      0.00000000      0.00000000      0.00000000      0.00000000      0.00000000      0.00000000      0.00000000</v>
  </separator>
  <separator name="performance" >
   <i type="int" name="NPAR">     4</i>
   <i type="int" name="NSIM">     4</i>
   <i type="int" name="NBLK">    -1</i>
   <i type="logical" name="LPLANE"> T  </i>
   <i type="logical" name="LSCALAPACK"> T  </i>
   <i type="logical" name="LSCAAWARE"> F  </i>
   <i type="logical" name="LSCALU"> F  </i>
   <i type="logical" name="LASYNC"> F  </i>
   <i type="logical" name="LORBITALREAL"> F  </i>
  </separator>
  <separator name="miscellaneous" >
   <i type="int" name="IDIOT">     3</i>
   <i type="int" name="ISPECIAL">     0</i>
   <i type="logical" name="LMUSIC"> F  </i>
   <v name="POMASS">     30.97400000</v>
   <v name="DARWINR">      0.00000000</v>
   <v name="DARWINV">      1.00000000</v>
   <i type="logical" name="LCORR"> T  </i>
  </separator>
  <i type="logical" name="GGA_COMPAT"> T  </i>
  <i type="logical" name="LBERRY"> F  </i>
  <i type="int" name="ICORELEVEL">     1</i>
  <i type="int" name="CLNT">     1</i>
  <i type="int" name="CLN">     1</i>
  <i type="int" name="CLL">     0</i>
  <i name="CLZ">      0.00000000</i>
  <i type="logical" name="LDAU"> F  </i>
  <i type="int" name="I_CONSTRAINED_M">     0</i>
  <separator name="electronic exchange-correlation" >
   <i type="string" name="GGA">PE</i>
   <i type="int" name="VOSKOWN">     0</i>
   <i type="logical" name="LHFCALC"> F  </i>
   <i type="string" name="PRECFOCK"></i>
   <i type="logical" name="LSYMGRAD"> F  </i>
   <i type="logical" name="LHFONE"> F  </i>
   <i type="logical" name="LRHFCALC"> F  </i>
   <i type="logical" name="LTHOMAS"> F  </i>
   <i type="logical" name="LMODELHF"> F  </i>
   <i name="ENCUT4O">     -1.00000000</i>
   <i type="int" name="EXXOEP">     0</i>
   <i type="int" name="FOURORBIT">     0</i>
   <i name="AEXX">      0.00000000</i>
   <i name="HFALPHA">      0.00000000</i>
   <i name="MCALPHA">      0.00000000</i>
   <i name="ALDAX">      1.00000000</i>
   <i name="AGGAX">      1.00000000</i>
   <i name="ALDAC">      1.00000000</i>
   <i name="AGGAC">      1.00000000</i>
   <i type="int" name="NKREDX">     1</i>
   <i type="int" name="NKREDY">     1</i>
   <i type="int" name="NKREDZ">     1</i>
   <i type="logical" name="SHIFTRED"> F  </i>
   <i type="logical" name="ODDONLY"> F  </i>
   <i type="logical" name="EVENONLY"> F  </i>
   <i type="int" name="LMAXFOCK">     0</i>
   <i type="int" name="NMAXFOCKAE">     0</i>
   <i type="logical" name="LFOCKAEDFT"> F  </i>
   <i name="HFSCREEN">      0.00000000</i>
   <i name="HFSCREENC">      0.00000000</i>
   <i type="int" name="NBANDSGWLOW">     0</i>
  </separator>
  <separator name="vdW DFT" >
   <i type="logical" name="LUSE_VDW"> F  </i>
   <i name="Zab_VDW">     -0.84910000</i>
   <i name="PARAM1">      0.12340000</i>
   <i name="PARAM2">      1.00000000</i>
   <i name="PARAM3">      0.00000000</i>
  </separator>
  <separator name="model GW" >
   <i type="int" name="MODEL_GW">     0</i>
   <i name="MODEL_EPS0">     23.83979645</i>
   <i name="MODEL_ALPHA">      1.00000000</i>
  </separator>
  <separator name="linear response parameters" >
   <i type="logical" name="LEPSILON"> F  </i>
   <i type="logical" name="LRPA"> F  </i>
   <i type="logical" name="LNABLA"> F  </i>
   <i type="logical" name="LVEL"> F  </i>
   <i type="int" name="KINTER">     0</i>
   <i name="CSHIFT">      0.10000000</i>
   <i name="OMEGAMAX">     -1.00000000</i>
   <i name="DEG_THRESHOLD">      0.00200000</i>
   <i name="RTIME">     -0.10000000</i>
   <i name="WPLASMAI">      0.00000000</i>
   <v name="DFIELD">      0.00000000      0.00000000      0.00000000</v>
   <v name="WPLASMA">      0.00000000      0.00000000      0.00000000      0.00000000      0.00000000      0.00000000      0.00000000      0.00000000      0.00000000</v>
  </separator>
  <separator name="orbital magnetization" >
   <i type="logical" name="NUCIND"> F  </i>
   <v name="MAGPOS">      0.00000000      0.00000000      0.00000000</v>
   <i type="logical" name="LNICSALL"> T  </i>
   <i type="logical" name="ORBITALMAG"> F  </i>
   <i type="logical" name="LMAGBLOCH"> F  </i>
   <i type="logical" name="LCHIMAG"> F  </i>
   <i type="logical" name="LGAUGE"> T  </i>
   <i type="int" name="MAGATOM">     0</i>
   <v name="MAGDIPOL">      0.00000000      0.00000000      0.00000000</v>
   <v name="AVECCONST">      0.00000000      0.00000000      0.00000000</v>
  </separator>
  <separator name="response functions" >
   <i type="logical" name="LADDER"> F  </i>
   <i type="logical" name="LRPAFORCE"> F  </i>
   <i type="logical" name="LFXC"> F  </i>
   <i type="logical" name="LHARTREE"> T  </i>
   <i type="int" name="IBSE">     0</i>
   <v type="int" name="KPOINT">    -1     0     0     0</v>
   <i type="logical" name="LTCTE"> F  </i>
   <i type="logical" name="LTETE"> F  </i>
   <i type="logical" name="LTRIPLET"> F  </i>
   <i type="logical" name="LFXCEPS"> F  </i>
   <i type="logical" name="LFXHEG"> F  </i>
   <i type="int" name="NATURALO">     2</i>
   <i type="logical" name="L2ORDER"> F  </i>
   <i type="logical" name="LMP2LT"> F  </i>
   <i type="logical" name="LUSEW"> F  </i>
   <i name="ENCUTGW">     -2.00000000</i>
   <i name="ENCUTGWSOFT">     -2.00000000</i>
   <i name="ENCUTLF">     -1.00000000</i>
   <i type="int" name="LMAXMP2">    -1</i>
   <i name="SCISSOR">      0.00000000</i>
   <i type="int" name="NOMEGA">     0</i>
   <i type="int" name="NOMEGAR">     0</i>
   <i type="int" name="NBANDSGW">    -1</i>
   <i type="int" name="NBANDSO">    -1</i>
   <i type="int" name="NBANDSV">    -1</i>
   <i type="int" name="NELM">   200</i>
   <i type="int" name="NELMHF">     1</i>
   <i type="int" name="DIM">     3</i>
   <i type="int" name="ANTIRES">     0</i>
   <i name="OMEGAMAX">    -30.00000000</i>
   <i name="OMEGAMIN">    -30.00000000</i>
   <i name="OMEGATL">   -200.00000000</i>
   <i type="int" name="OMEGAGRID">   140</i>
   <i name="CSHIFT">     -0.10000000</i>
   <i type="logical" name="SELFENERGY"> F  </i>
   <i type="logical" name="LSPECTRAL"> F  </i>
   <i type="logical" name="LSPECTRALGW"> F  </i>
   <i type="logical" name="LSINGLES"> F  </i>
   <i type="logical" name="LFERMIGW"> F  </i>
   <i type="logical" name="ODDONLYGW"> F  </i>
   <i type="logical" name="EVENONLYGW"> F  </i>
   <i type="int" name="NKREDLFX">     1</i>
   <i type="int" name="NKREDLFY">     1</i>
   <i type="int" name="NKREDLFZ">     1</i>
   <i type="int" name="MAXMEM">  2800</i>
   <i type="int" name="TELESCOPE">     0</i>
   <i type="int" name="TAUPAR">     1</i>
   <i type="int" name="OMEGAPAR">    -1</i>
   <i name="LAMBDA">      1.00000000</i>
  </separator>
  <separator name="External order field" >
   <i name="OFIELD_KAPPA">      0.00000000</i>
   <v name="OFIELD_K">      0.00000000      0.00000000      0.00000000</v>
   <i name="OFIELD_Q6_NEAR">      0.00000000</i>
   <i name="OFIELD_Q6_FAR">      0.00000000</i>
   <i name="OFIELD_A">      0.00000000</i>
  </separator>
 </parameters>
 <atominfo>
  <atoms>      12 </atoms>
  <types>       1 </types>
  <array name="atoms" >
   <dimension dim="1">ion</dimension>
   <field type="string">element</field>
   <field type="int">atomtype</field>
   <set>
    <rc><c>P </c><c>   1</c></rc>
    <rc><c>P </c><c>   1</c></rc>
    <rc><c>P </c><c>   1</c></rc>
    <rc><c>P </c><c>   1</c></rc>
    <rc><c>P </c><c>   1</c></rc>
    <rc><c>P </c><c>   1</c></rc>
    <rc><c>P </c><c>   1</c></rc>
    <rc><c>P </c><c>   1</c></rc>
    <rc><c>P </c><c>   1</c></rc>
    <rc><c>P </c><c>   1</c></rc>
    <rc><c>P </c><c>   1</c></rc>
    <rc><c>P </c><c>   1</c></rc>
   </set>
  </array>
  <array name="atomtypes" >
   <dimension dim="1">type</dimension>
   <field type="int">atomspertype</field>
   <field type="string">element</field>
   <field>mass</field>
   <field>valence</field>
   <field type="string">pseudopotential</field>
   <set>
    <rc><c>  12</c><c>P </c><c>     30.97400000</c><c>      5.00000000</c><c>  PAW_PBE P 06Sep2000                   </c></rc>
   </set>
  </array>
 </atominfo>
 <structure name="initialpos" >
  <crystal>
   <varray name="basis" >
    <v>       3.34288600       0.00000000       0.00000000 </v>
    <v>       0.00000000      32.60240900       0.00000000 </v>
    <v>       0.00000000       0.00000000       4.37483100 </v>
   </varray>
   <i name="volume">    476.79592902 </i>
   <varray name="rec_basis" >
    <v>       0.29914272       0.00000000       0.00000000 </v>
    <v>       0.00000000       0.03067258       0.00000000 </v>
    <v>       0.00000000       0.00000000       0.22858026 </v>
   </varray>
  </crystal>
  <varray name="positions" >
   <v>       0.00000000       0.30672600       0.91892400 </v>
   <v>       0.50000000       0.30672600       0.58107600 </v>
   <v>       0.00000000       0.37246700       0.08107600 </v>
   <v>       0.50000000       0.37246700       0.41892400 </v>
   <v>       0.50000000       0.46712900       0.91892400 </v>
   <v>       0.00000000       0.46712900       0.58107600 </v>
   <v>       0.50000000       0.53287100       0.08107600 </v>
   <v>       0.00000000       0.53287100       0.41892400 </v>
   <v>       0.00000000       0.62753300       0.91892400 </v>
   <v>       0.50000000       0.62753300       0.58107600 </v>
   <v>       0.00000000       0.69327400       0.08107600 </v>
   <v>       0.50000000       0.69327400       0.41892400 </v>
  </varray>
 </structure>
 <calculation>
  <scstep>
   <time name="dav">    0.38    0.39</time>
   <time name="total">    0.48    0.48</time>
   <energy>
    <i name="alphaZ">     30.28014394 </i>
    <i name="ewald">  14973.24208224 </i>
    <i name="hartreedc"> -16928.93300519 </i>
    <i name="XCdc">     40.33410248 </i>
    <i name="pawpsdc">   1677.12035881 </i>
    <i name="pawaedc">  -1579.18296132 </i>
    <i name="eentropy">     -0.00135610 </i>
    <i name="bandstr">      9.05534550 </i>
    <i name="atom">   2112.48864025 </i>
    <i name="e_fr_energy">    334.40335061 </i>
    <i name="e_wo_entrp">    334.40470671 </i>
    <i name="e_0_energy">    334.40402866 </i>
   </energy>
  </scstep>
  <scstep>
   <time name="dav">    0.46    0.46</time>
   <time name="total">    0.46    0.46</time>
   <energy>
    <i name="e_fr_energy">    -26.62903555 </i>
    <i name="e_wo_entrp">    -26.62903555 </i>
    <i name="e_0_energy">    -26.62903555 </i>
   </energy>
  </scstep>
  <scstep>
   <time name="dav">    0.42    0.42</time>
   <time name="total">    0.42    0.42</time>
   <energy>
    <i name="e_fr_energy">    -63.44630872 </i>
    <i name="e_wo_entrp">    -63.44630872 </i>
    <i name="e_0_energy">    -63.44630872 </i>
   </energy>
  </scstep>
  <scstep>
   <time name="dav">    0.47    0.47</time>
   <time name="total">    0.47    0.47</time>
   <energy>
    <i name="e_fr_energy">    -64.74021382 </i>
    <i name="e_wo_entrp">    -64.74021382 </i>
    <i name="e_0_energy">    -64.74021382 </i>
   </energy>
  </scstep>
  <scstep>
   <time name="dav">    0.47    0.48</time>
   <time name="total">    0.50    0.50</time>
   <energy>
    <i name="e_fr_energy">    -64.78020538 </i>
    <i name="e_wo_entrp">    -64.78020538 </i>
    <i name="e_0_energy">    -64.78020538 </i>
   </energy>
  </scstep>
  <scstep>
   <time name="dav">    0.43    0.43</time>
   <time name="total">    0.53    0.53</time>
   <energy>
    <i name="e_fr_energy">    -64.45493409 </i>
    <i name="e_wo_entrp">    -64.45493409 </i>
    <i name="e_0_energy">    -64.45493409 </i>
   </energy>
  </scstep>
  <scstep>
   <time name="dav">    0.41    0.41</time>
   <time name="total">    0.51    0.51</time>
   <energy>
    <i name="e_fr_energy">    -64.30630194 </i>
    <i name="e_wo_entrp">    -64.30630161 </i>
    <i name="e_0_energy">    -64.30630177 </i>
   </energy>
  </scstep>
  <scstep>
   <time name="dav">    0.42    0.43</time>
   <time name="total">    0.53    0.53</time>
   <energy>
    <i name="e_fr_energy">    -64.30595974 </i>
    <i name="e_wo_entrp">    -64.30595966 </i>
    <i name="e_0_energy">    -64.30595970 </i>
   </energy>
  </scstep>
  <scstep>
   <time name="dav">    0.48    0.48</time>
   <time name="total">    0.58    0.58</time>
   <energy>
    <i name="e_fr_energy">    -64.30593130 </i>
    <i name="e_wo_entrp">    -64.30593122 </i>
    <i name="e_0_energy">    -64.30593126 </i>
   </energy>
  </scstep>
  <scstep>
   <time name="dav">    0.41    0.41</time>
   <time name="total">    0.51    0.51</time>
   <energy>
    <i name="e_fr_energy">    -64.30568837 </i>
    <i name="e_wo_entrp">    -64.30568833 </i>
    <i name="e_0_energy">    -64.30568835 </i>
   </energy>
  </scstep>
  <scstep>
   <time name="dav">    0.43    0.43</time>
   <time name="total">    0.53    0.53</time>
   <energy>
    <i name="e_fr_energy">    -64.30545651 </i>
    <i name="e_wo_entrp">    -64.30545645 </i>
    <i name="e_0_energy">    -64.30545648 </i>
   </energy>
  </scstep>
  <scstep>
   <time name="dav">    0.41    0.42</time>
   <time name="total">    0.52    0.52</time>
   <energy>
    <i name="e_fr_energy">    -64.30552690 </i>
    <i name="e_wo_entrp">    -64.30552683 </i>
    <i name="e_0_energy">    -64.30552687 </i>
   </energy>
  </scstep>
  <scstep>
   <time name="dav">    0.40    0.40</time>
   <time name="total">    0.50    0.51</time>
   <energy>
    <i name="e_fr_energy">    -64.30573990 </i>
    <i name="e_wo_entrp">    -64.30573982 </i>
    <i name="e_0_energy">    -64.30573986 </i>
   </energy>
  </scstep>
  <scstep>
   <time name="dav">    0.38    0.38</time>
   <time name="total">    0.48    0.49</time>
   <energy>
    <i name="e_fr_energy">    -64.30589774 </i>
    <i name="e_wo_entrp">    -64.30589766 </i>
    <i name="e_0_energy">    -64.30589770 </i>
   </energy>
  </scstep>
  <scstep>
   <time name="dav">    0.31    0.31</time>
   <time name="total">    0.41    0.41</time>
   <energy>
    <i name="e_fr_energy">    -64.30592857 </i>
    <i name="e_wo_entrp">    -64.30592849 </i>
    <i name="e_0_energy">    -64.30592853 </i>
   </energy>
  </scstep>
  <scstep>
   <time name="dav">    0.39    0.39</time>
   <time name="total">    0.49    0.49</time>
   <energy>
    <i name="e_fr_energy">    -64.30618533 </i>
    <i name="e_wo_entrp">    -64.30618525 </i>
    <i name="e_0_energy">    -64.30618529 </i>
   </energy>
  </scstep>
  <scstep>
   <time name="dav">    0.34    0.34</time>
   <time name="total">    0.45    0.46</time>
   <energy>
    <i name="e_fr_energy">    -64.30620612 </i>
    <i name="e_wo_entrp">    -64.30620603 </i>
    <i name="e_0_energy">    -64.30620607 </i>
   </energy>
  </scstep>
  <scstep>
   <time name="dav">    0.32    0.32</time>
   <time name="total">    0.48    0.48</time>
   <energy>
    <i name="alphaZ">     30.28014394 </i>
    <i name="ewald">  14973.24208224 </i>
    <i name="hartreedc"> -16968.25562779 </i>
    <i name="XCdc">     43.13932140 </i>
    <i name="pawpsdc">   6287.22094309 </i>
    <i name="pawaedc">  -6190.20392299 </i>
    <i name="eentropy">     -0.00000009 </i>
    <i name="bandstr">   -352.21779198 </i>
    <i name="atom">   2112.48864025 </i>
    <i name="e_fr_energy">    -64.30621193 </i>
    <i name="e_wo_entrp">    -64.30621184 </i>
    <i name="e_0_energy">    -64.30621189 </i>
   </energy>
  </scstep>
  <structure>
   <crystal>
    <varray name="basis" >
     <v>       3.34288600       0.00000000       0.00000000 </v>
     <v>       0.00000000      32.60240900       0.00000000 </v>
     <v>       0.00000000       0.00000000       4.37483100 </v>
    </varray>
    <i name="volume">    476.79592902 </i>
    <varray name="rec_basis" >
     <v>       0.29914272       0.00000000       0.00000000 </v>
     <v>       0.00000000       0.03067258       0.00000000 </v>
     <v>       0.00000000       0.00000000       0.22858026 </v>
    </varray>
   </crystal>
   <varray name="positions" >
    <v>       0.00000000       0.30672600       0.91892400 </v>
    <v>       0.50000000       0.30672600       0.58107600 </v>
    <v>       0.00000000       0.37246700       0.08107600 </v>
    <v>       0.50000000       0.37246700       0.41892400 </v>
    <v>       0.50000000       0.46712900       0.91892400 </v>
    <v>       0.00000000       0.46712900       0.58107600 </v>
    <v>       0.50000000       0.53287100       0.08107600 </v>
    <v>       0.00000000       0.53287100       0.41892400 </v>
    <v>       0.00000000       0.62753300       0.91892400 </v>
    <v>       0.50000000       0.62753300       0.58107600 </v>
    <v>       0.00000000       0.69327400       0.08107600 </v>
    <v>       0.50000000       0.69327400       0.41892400 </v>
   </varray>
  </structure>
  <varray name="forces" >
   <v>       0.00000000       0.07931521      -0.03203368 </v>
   <v>       0.00000000       0.07931521       0.03203368 </v>
   <v>       0.00000000      -0.07152230      -0.02705915 </v>
   <v>      -0.00000000      -0.07152230       0.02705915 </v>
   <v>       0.00000000       0.03250708       0.01265903 </v>
   <v>       0.00000000       0.03250708      -0.01265903 </v>
   <v>       0.00000000      -0.03250708      -0.01265903 </v>
   <v>       0.00000000      -0.03250708       0.01265903 </v>
   <v>      -0.00000000       0.07152230       0.02705915 </v>
   <v>       0.00000000       0.07152230      -0.02705915 </v>
   <v>       0.00000000      -0.07931521       0.03203368 </v>
   <v>       0.00000000      -0.07931521      -0.03203368 </v>
  </varray>
  <varray name="stress" >
   <v>       3.29587779       0.00000000       0.00000000 </v>
   <v>       0.00000000      -3.19497928      -0.00000000 </v>
   <v>       0.00000000       0.00000000       2.56719717 </v>
  </varray>
  <energy>
   <i name="e_fr_energy">    -66.48015145 </i>
   <i name="e_wo_entrp">    -66.48015141 </i>
   <i name="e_0_energy">     -0.00000009 </i>
  </energy>
  <time name="totalsc">   10.24   10.28</time>
  <eigenvalues>
   <array>
    <dimension dim="1">band</dimension>
    <dimension dim="2">kpoint</dimension>
    <dimension dim="3">spin</dimension>
    <field>eigene</field>
    <field>occ</field>
    <set>
     <set comment="spin 1">
      <set comment="kpoint 1">
       <r>  -14.8533    1.0000 </r>
       <r>  -14.7324    1.0000 </r>
       <r>  -14.6640    1.0000 </r>
       <r>  -12.3723    1.0000 </r>
       <r>  -12.1259    1.0000 </r>
       <r>  -11.9465    1.0000 </r>
       <r>   -8.6048    1.0000 </r>
       <r>   -8.5200    1.0000 </r>
       <r>   -8.4900    1.0000 </r>
       <r>   -5.9233    1.0000 </r>
       <r>   -5.5441    1.0000 </r>
       <r>   -5.1260    1.0000 </r>
       <r>   -4.5040    1.0000 </r>
       <r>   -4.5033    1.0000 </r>
       <r>   -4.1853    1.0000 </r>
       <r>   -4.1419    1.0000 </r>
       <r>   -3.9947    1.0000 </r>
       <r>   -3.9198    1.0000 </r>
       <r>   -3.3922    1.0000 </r>
       <r>   -3.2907    1.0000 </r>
       <r>   -3.2412    1.0000 </r>
       <r>   -1.8789    1.0000 </r>
       <r>   -1.7348    1.0000 </r>
       <r>   -1.6235    1.0000 </r>
       <r>   -1.5871    1.0000 </r>
       <r>   -1.5024    1.0000 </r>
       <r>   -1.1069    1.0000 </r>
       <r>   -0.2484    1.0000 </r>
       <r>    0.3558    1.0000 </r>
       <r>    0.9110    1.0000 </r>
       <r>    0.9702    0.0000 </r>
       <r>    1.4981    0.0000 </r>
       <r>    1.5235    0.0000 </r>
       <r>    1.6980    0.0000 </r>
       <r>    1.7062    0.0000 </r>
       <r>    1.8617    0.0000 </r>
       <r>    2.7306    0.0000 </r>
       <r>    2.9016    0.0000 </r>
       <r>    2.9720    0.0000 </r>
       <r>    3.7094    0.0000 </r>
      </set>
      <set comment="kpoint 2">
       <r>  -14.3883    1.0000 </r>
       <r>  -14.2691    1.0000 </r>
       <r>  -14.2026    1.0000 </r>
       <r>  -11.8879    1.0000 </r>
       <r>  -11.6435    1.0000 </r>
       <r>  -11.4657    1.0000 </r>
       <r>   -9.0688    1.0000 </r>
       <r>   -9.0120    1.0000 </r>
       <r>   -9.0114    1.0000 </r>
       <r>   -5.5341    1.0000 </r>
       <r>   -5.3344    1.0000 </r>
       <r>   -5.2435    1.0000 </r>
       <r>   -5.1995    1.0000 </r>
       <r>   -5.1668    1.0000 </r>
       <r>   -4.7834    1.0000 </r>
       <r>   -4.6449    1.0000 </r>
       <r>   -4.5882    1.0000 </r>
       <r>   -4.5695    1.0000 </r>
       <r>   -4.0949    1.0000 </r>
       <r>   -3.7588    1.0000 </r>
       <r>   -3.6167    1.0000 </r>
       <r>   -2.7993    1.0000 </r>
       <r>   -2.5810    1.0000 </r>
       <r>   -2.3619    1.0000 </r>
       <r>   -1.7031    1.0000 </r>
       <r>   -1.4258    1.0000 </r>
       <r>   -0.9361    1.0000 </r>
       <r>   -0.2562    1.0000 </r>
       <r>    0.0639    1.0000 </r>
       <r>    0.2456    1.0000 </r>
       <r>    1.3611    0.0000 </r>
       <r>    1.5883    0.0000 </r>
       <r>    1.8276    0.0000 </r>
       <r>    2.1007    0.0000 </r>
       <r>    2.3094    0.0000 </r>
       <r>    2.4013    0.0000 </r>
       <r>    3.9521    0.0000 </r>
       <r>    4.1576    0.0000 </r>
       <r>    4.1954    0.0000 </r>
       <r>    4.2666    0.0000 </r>
      </set>
      <set comment="kpoint 3">
       <r>  -13.0320    1.0000 </r>
       <r>  -12.9194    1.0000 </r>
       <r>  -12.8599    1.0000 </r>
       <r>  -10.9764    1.0000 </r>
       <r>  -10.8832    1.0000 </r>
       <r>  -10.8443    1.0000 </r>
       <r>  -10.4530    1.0000 </r>
       <r>  -10.2160    1.0000 </r>
       <r>  -10.0440    1.0000 </r>
       <r>   -8.1449    1.0000 </r>
       <r>   -7.9299    1.0000 </r>
       <r>   -7.7761    1.0000 </r>
       <r>   -4.7339    1.0000 </r>
       <r>   -4.6681    1.0000 </r>
       <r>   -4.6627    1.0000 </r>
       <r>   -4.6271    1.0000 </r>
       <r>   -4.3570    1.0000 </r>
       <r>   -4.1609    1.0000 </r>
       <r>   -3.0249    1.0000 </r>
       <r>   -2.8204    1.0000 </r>
       <r>   -2.7228    1.0000 </r>
       <r>   -2.4981    1.0000 </r>
       <r>   -2.2618    1.0000 </r>
       <r>   -2.1188    1.0000 </r>
       <r>   -1.9821    1.0000 </r>
       <r>   -1.7221    1.0000 </r>
       <r>   -1.4669    1.0000 </r>
       <r>   -1.4578    1.0000 </r>
       <r>   -1.2402    1.0000 </r>
       <r>   -1.0476    1.0000 </r>
       <r>    1.3218    0.0000 </r>
       <r>    1.3480    0.0000 </r>
       <r>    1.5955    0.0000 </r>
       <r>    1.7681    0.0000 </r>
       <r>    2.0277    0.0000 </r>
       <r>    2.0307    0.0000 </r>
       <r>    2.0384    0.0000 </r>
       <r>    2.1539    0.0000 </r>
       <r>    2.3226    0.0000 </r>
       <r>    3.0507    0.0000 </r>
      </set>
      <set comment="kpoint 4">
       <r>  -14.5019    1.0000 </r>
       <r>  -14.3882    1.0000 </r>
       <r>  -14.3276    1.0000 </r>
       <r>  -12.5948    1.0000 </r>
       <r>  -12.4603    1.0000 </r>
       <r>  -12.4000    1.0000 </r>
       <r>   -9.0042    1.0000 </r>
       <r>   -8.8469    1.0000 </r>
       <r>   -8.7246    1.0000 </r>
       <r>   -6.9106    1.0000 </r>
       <r>   -6.6372    1.0000 </r>
       <r>   -6.4697    1.0000 </r>
       <r>   -4.5475    1.0000 </r>
       <r>   -4.0364    1.0000 </r>
       <r>   -3.3744    1.0000 </r>
       <r>   -3.1150    1.0000 </r>
       <r>   -3.0622    1.0000 </r>
       <r>   -3.0219    1.0000 </r>
       <r>   -2.9813    1.0000 </r>
       <r>   -2.7172    1.0000 </r>
       <r>   -2.7161    1.0000 </r>
       <r>   -1.8633    1.0000 </r>
       <r>   -1.7620    1.0000 </r>
       <r>   -1.7324    1.0000 </r>
       <r>   -1.7237    1.0000 </r>
       <r>   -1.0733    1.0000 </r>
       <r>   -0.4247    1.0000 </r>
       <r>   -0.2659    1.0000 </r>
       <r>   -0.2030    1.0000 </r>
       <r>   -0.0256    1.0000 </r>
       <r>    1.6803    0.0000 </r>
       <r>    2.0072    0.0000 </r>
       <r>    2.1148    0.0000 </r>
       <r>    2.2075    0.0000 </r>
       <r>    2.2581    0.0000 </r>
       <r>    2.2617    0.0000 </r>
       <r>    2.3693    0.0000 </r>
       <r>    2.7100    0.0000 </r>
       <r>    3.2604    0.0000 </r>
       <r>    3.3345    0.0000 </r>
      </set>
      <set comment="kpoint 5">
       <r>  -14.0440    1.0000 </r>
       <r>  -13.9321    1.0000 </r>
       <r>  -13.8733    1.0000 </r>
       <r>  -12.1429    1.0000 </r>
       <r>  -12.0151    1.0000 </r>
       <r>  -11.9611    1.0000 </r>
       <r>   -9.0949    1.0000 </r>
       <r>   -8.9436    1.0000 </r>
       <r>   -8.8345    1.0000 </r>
       <r>   -6.7878    1.0000 </r>
       <r>   -6.5886    1.0000 </r>
       <r>   -6.4650    1.0000 </r>
       <r>   -5.3061    1.0000 </r>
       <r>   -5.1456    1.0000 </r>
       <r>   -5.0336    1.0000 </r>
       <r>   -4.6391    1.0000 </r>
       <r>   -4.2627    1.0000 </r>
       <r>   -4.0966    1.0000 </r>
       <r>   -3.4754    1.0000 </r>
       <r>   -3.2944    1.0000 </r>
       <r>   -2.9254    1.0000 </r>
       <r>   -2.2705    1.0000 </r>
       <r>   -2.1488    1.0000 </r>
       <r>   -2.1077    1.0000 </r>
       <r>   -1.4162    1.0000 </r>
       <r>   -1.1524    1.0000 </r>
       <r>   -0.9648    1.0000 </r>
       <r>   -0.9316    1.0000 </r>
       <r>   -0.6214    1.0000 </r>
       <r>   -0.4270    1.0000 </r>
       <r>    2.0411    0.0000 </r>
       <r>    2.2838    0.0000 </r>
       <r>    2.4466    0.0000 </r>
       <r>    2.8562    0.0000 </r>
       <r>    2.8748    0.0000 </r>
       <r>    2.9912    0.0000 </r>
       <r>    3.1795    0.0000 </r>
       <r>    3.2323    0.0000 </r>
       <r>    3.5942    0.0000 </r>
       <r>    4.7266    0.0000 </r>
      </set>
      <set comment="kpoint 6">
       <r>  -12.7299    1.0000 </r>
       <r>  -12.6259    1.0000 </r>
       <r>  -12.5755    1.0000 </r>
       <r>  -11.2347    1.0000 </r>
       <r>  -11.1561    1.0000 </r>
       <r>  -11.1380    1.0000 </r>
       <r>  -10.0344    1.0000 </r>
       <r>   -9.8518    1.0000 </r>
       <r>   -9.7311    1.0000 </r>
       <r>   -8.3148    1.0000 </r>
       <r>   -8.1893    1.0000 </r>
       <r>   -8.1307    1.0000 </r>
       <r>   -5.6259    1.0000 </r>
       <r>   -5.4549    1.0000 </r>
       <r>   -5.3118    1.0000 </r>
       <r>   -4.6303    1.0000 </r>
       <r>   -4.5484    1.0000 </r>
       <r>   -4.4894    1.0000 </r>
       <r>   -3.6595    1.0000 </r>
       <r>   -3.6166    1.0000 </r>
       <r>   -3.5148    1.0000 </r>
       <r>   -2.9423    1.0000 </r>
       <r>   -2.7503    1.0000 </r>
       <r>   -2.6807    1.0000 </r>
       <r>   -2.1883    1.0000 </r>
       <r>   -1.7437    1.0000 </r>
       <r>   -1.2242    1.0000 </r>
       <r>   -0.8811    1.0000 </r>
       <r>   -0.8224    1.0000 </r>
       <r>   -0.7415    1.0000 </r>
       <r>    1.5687    0.0000 </r>
       <r>    1.8888    0.0000 </r>
       <r>    1.9070    0.0000 </r>
       <r>    2.7674    0.0000 </r>
       <r>    2.9621    0.0000 </r>
       <r>    2.9689    0.0000 </r>
       <r>    2.9780    0.0000 </r>
       <r>    3.2199    0.0000 </r>
       <r>    3.2440    0.0000 </r>
       <r>    3.6242    0.0000 </r>
      </set>
      <set comment="kpoint 7">
       <r>  -13.5456    1.0000 </r>
       <r>  -13.5456    1.0000 </r>
       <r>  -13.4751    1.0000 </r>
       <r>  -13.4751    1.0000 </r>
       <r>  -13.4291    1.0000 </r>
       <r>  -13.4291    1.0000 </r>
       <r>   -8.5696    1.0000 </r>
       <r>   -8.5696    1.0000 </r>
       <r>   -8.2526    1.0000 </r>
       <r>   -8.2526    1.0000 </r>
       <r>   -7.9793    1.0000 </r>
       <r>   -7.9793    1.0000 </r>
       <r>   -3.5900    1.0000 </r>
       <r>   -3.5900    1.0000 </r>
       <r>   -2.8268    1.0000 </r>
       <r>   -2.8268    1.0000 </r>
       <r>   -2.4212    1.0000 </r>
       <r>   -2.4212    1.0000 </r>
       <r>   -2.3763    1.0000 </r>
       <r>   -2.3763    1.0000 </r>
       <r>   -2.3313    1.0000 </r>
       <r>   -2.3313    1.0000 </r>
       <r>   -2.0219    1.0000 </r>
       <r>   -2.0219    1.0000 </r>
       <r>   -0.7265    1.0000 </r>
       <r>   -0.7265    1.0000 </r>
       <r>   -0.5181    1.0000 </r>
       <r>   -0.5181    1.0000 </r>
       <r>   -0.4460    1.0000 </r>
       <r>   -0.4460    1.0000 </r>
       <r>    2.1904    0.0000 </r>
       <r>    2.1904    0.0000 </r>
       <r>    2.2348    0.0000 </r>
       <r>    2.2348    0.0000 </r>
       <r>    2.2870    0.0000 </r>
       <r>    2.2870    0.0000 </r>
       <r>    3.4196    0.0000 </r>
       <r>    3.4204    0.0000 </r>
       <r>    3.5671    0.0000 </r>
       <r>    3.5790    0.0000 </r>
      </set>
      <set comment="kpoint 8">
       <r>  -13.1073    1.0000 </r>
       <r>  -13.1073    1.0000 </r>
       <r>  -13.0372    1.0000 </r>
       <r>  -13.0372    1.0000 </r>
       <r>  -12.9926    1.0000 </r>
       <r>  -12.9926    1.0000 </r>
       <r>   -8.3902    1.0000 </r>
       <r>   -8.3902    1.0000 </r>
       <r>   -8.1159    1.0000 </r>
       <r>   -8.1159    1.0000 </r>
       <r>   -7.8960    1.0000 </r>
       <r>   -7.8960    1.0000 </r>
       <r>   -4.8151    1.0000 </r>
       <r>   -4.8151    1.0000 </r>
       <r>   -4.6861    1.0000 </r>
       <r>   -4.6861    1.0000 </r>
       <r>   -4.5759    1.0000 </r>
       <r>   -4.5759    1.0000 </r>
       <r>   -3.2810    1.0000 </r>
       <r>   -3.2810    1.0000 </r>
       <r>   -2.6021    1.0000 </r>
       <r>   -2.6021    1.0000 </r>
       <r>   -2.0048    1.0000 </r>
       <r>   -2.0048    1.0000 </r>
       <r>   -1.0946    1.0000 </r>
       <r>   -1.0946    1.0000 </r>
       <r>   -0.8556    1.0000 </r>
       <r>   -0.8556    1.0000 </r>
       <r>   -0.5929    1.0000 </r>
       <r>   -0.5929    1.0000 </r>
       <r>    2.7946    0.0000 </r>
       <r>    2.7946    0.0000 </r>
       <r>    3.1430    0.0000 </r>
       <r>    3.1430    0.0000 </r>
       <r>    3.2315    0.0000 </r>
       <r>    3.2315    0.0000 </r>
       <r>    3.7297    0.0000 </r>
       <r>    3.7297    0.0000 </r>
       <r>    4.0402    0.0000 </r>
       <r>    4.0402    0.0000 </r>
      </set>
      <set comment="kpoint 9">
       <r>  -11.9562    1.0000 </r>
       <r>  -11.9562    1.0000 </r>
       <r>  -11.8919    1.0000 </r>
       <r>  -11.8919    1.0000 </r>
       <r>  -11.8595    1.0000 </r>
       <r>  -11.8595    1.0000 </r>
       <r>   -9.1062    1.0000 </r>
       <r>   -9.1062    1.0000 </r>
       <r>   -9.0053    1.0000 </r>
       <r>   -9.0053    1.0000 </r>
       <r>   -8.9626    1.0000 </r>
       <r>   -8.9626    1.0000 </r>
       <r>   -5.6482    1.0000 </r>
       <r>   -5.6482    1.0000 </r>
       <r>   -5.3567    1.0000 </r>
       <r>   -5.3567    1.0000 </r>
       <r>   -5.0989    1.0000 </r>
       <r>   -5.0989    1.0000 </r>
       <r>   -4.0055    1.0000 </r>
       <r>   -4.0055    1.0000 </r>
       <r>   -3.6899    1.0000 </r>
       <r>   -3.6899    1.0000 </r>
       <r>   -3.4267    1.0000 </r>
       <r>   -3.4267    1.0000 </r>
       <r>   -1.6890    1.0000 </r>
       <r>   -1.6890    1.0000 </r>
       <r>   -1.1955    1.0000 </r>
       <r>   -1.1955    1.0000 </r>
       <r>   -0.8861    1.0000 </r>
       <r>   -0.8861    1.0000 </r>
       <r>    2.6169    0.0000 </r>
       <r>    2.6169    0.0000 </r>
       <r>    2.9217    0.0000 </r>
       <r>    2.9217    0.0000 </r>
       <r>    3.4877    0.0000 </r>
       <r>    3.4877    0.0000 </r>
       <r>    4.3714    0.0000 </r>
       <r>    4.3786    0.0000 </r>
       <r>    4.4089    0.0000 </r>
       <r>    4.4538    0.0000 </r>
      </set>
     </set>
    </set>
   </array>
  </eigenvalues>
  <separator name="orbital magnetization" >
   <v name="MAGDIPOLOUT">      0.00000000      0.00000000      0.00000000</v>
  </separator>
  <dos>
   <i name="efermi">      0.94061188 </i>
   <total>
    <array>
     <dimension dim="1">gridpoints</dimension>
     <dimension dim="2">spin</dimension>
     <field>energy</field>
     <field>total</field>
     <field>integrated</field>
     <set>
      <set comment="spin 1">
       <r>   -15.8323     0.0000     0.0000 </r>
       <r>   -15.8216     0.0000     0.0000 </r>
       <r>   -15.8108     0.0000     0.0000 </r>
       <r>   -15.8000     0.0000     0.0000 </r>
       <r>   -15.7892     0.0000     0.0000 </r>
       <r>   -15.7785     0.0000     0.0000 </r>
       <r>   -15.7677     0.0000     0.0000 </r>
       <r>   -15.7569     0.0000     0.0000 </r>
       <r>   -15.7461     0.0000     0.0000 </r>
       <r>   -15.7354     0.0000     0.0000 </r>
       <r>   -15.7246     0.0000     0.0000 </r>
       <r>   -15.7138     0.0000     0.0000 </r>
       <r>   -15.7030     0.0000     0.0000 </r>
       <r>   -15.6923     0.0000     0.0000 </r>
       <r>   -15.6815     0.0000     0.0000 </r>
       <r>   -15.6707     0.0000     0.0000 </r>
       <r>   -15.6600     0.0000     0.0000 </r>
       <r>   -15.6492     0.0000     0.0000 </r>
       <r>   -15.6384     0.0000     0.0000 </r>
       <r>   -15.6276     0.0000     0.0000 </r>
       <r>   -15.6169     0.0000     0.0000 </r>
       <r>   -15.6061     0.0000     0.0000 </r>
       <r>   -15.5953     0.0000     0.0000 </r>
       <r>   -15.5845     0.0000     0.0000 </r>
       <r>   -15.5738     0.0000     0.0000 </r>
       <r>   -15.5630     0.0000     0.0000 </r>
       <r>   -15.5522     0.0000     0.0000 </r>
       <r>   -15.5414     0.0000     0.0000 </r>
       <r>   -15.5307     0.0000     0.0000 </r>
       <r>   -15.5199     0.0000     0.0000 </r>
       <r>   -15.5091     0.0000     0.0000 </r>
       <r>   -15.4983     0.0000     0.0000 </r>
       <r>   -15.4876     0.0000     0.0000 </r>
       <r>   -15.4768     0.0000     0.0000 </r>
       <r>   -15.4660     0.0000     0.0000 </r>
       <r>   -15.4552     0.0000     0.0000 </r>
       <r>   -15.4445     0.0000     0.0000 </r>
       <r>   -15.4337     0.0000     0.0000 </r>
       <r>   -15.4229     0.0000     0.0000 </r>
       <r>   -15.4121     0.0000     0.0000 </r>
       <r>   -15.4014     0.0000     0.0000 </r>
       <r>   -15.3906     0.0000     0.0000 </r>
       <r>   -15.3798     0.0000     0.0000 </r>
       <r>   -15.3690     0.0000     0.0000 </r>
       <r>   -15.3583     0.0000     0.0000 </r>
       <r>   -15.3475     0.0000     0.0000 </r>
       <r>   -15.3367     0.0000     0.0000 </r>
       <r>   -15.3259     0.0000     0.0000 </r>
       <r>   -15.3152     0.0000     0.0000 </r>
       <r>   -15.3044     0.0000     0.0000 </r>
       <r>   -15.2936     0.0000     0.0000 </r>
       <r>   -15.2829     0.0000     0.0000 </r>
       <r>   -15.2721     0.0000     0.0000 </r>
       <r>   -15.2613     0.0000     0.0000 </r>
       <r>   -15.2505     0.0000     0.0000 </r>
       <r>   -15.2398     0.0000     0.0000 </r>
       <r>   -15.2290     0.0000     0.0000 </r>
       <r>   -15.2182     0.0000     0.0000 </r>
       <r>   -15.2074     0.0000     0.0000 </r>
       <r>   -15.1967     0.0000     0.0000 </r>
       <r>   -15.1859     0.0000     0.0000 </r>
       <r>   -15.1751     0.0000     0.0000 </r>
       <r>   -15.1643     0.0000     0.0000 </r>
       <r>   -15.1536     0.0000     0.0000 </r>
       <r>   -15.1428     0.0000     0.0000 </r>
       <r>   -15.1320     0.0000     0.0000 </r>
       <r>   -15.1212     0.0000     0.0000 </r>
       <r>   -15.1105     0.0000     0.0000 </r>
       <r>   -15.0997     0.0000     0.0000 </r>
       <r>   -15.0889     0.0000     0.0000 </r>
       <r>   -15.0781     0.0000     0.0000 </r>
       <r>   -15.0674     0.0000     0.0000 </r>
       <r>   -15.0566     0.0000     0.0000 </r>
       <r>   -15.0458     0.0000     0.0000 </r>
       <r>   -15.0350     0.0000     0.0000 </r>
       <r>   -15.0243     0.0000     0.0000 </r>
       <r>   -15.0135     0.0000     0.0000 </r>
       <r>   -15.0027     0.0000     0.0000 </r>
       <r>   -14.9919     0.0000     0.0000 </r>
       <r>   -14.9812     0.0000     0.0000 </r>
       <r>   -14.9704     0.0000     0.0000 </r>
       <r>   -14.9596     0.0000     0.0000 </r>
       <r>   -14.9488     0.0000     0.0000 </r>
       <r>   -14.9381     0.0000     0.0000 </r>
       <r>   -14.9273     0.0000     0.0000 </r>
       <r>   -14.9165     0.0000     0.0000 </r>
       <r>   -14.9057     0.0000     0.0000 </r>
       <r>   -14.8950     0.0000     0.0000 </r>
       <r>   -14.8842     0.0001     0.0000 </r>
       <r>   -14.8734     0.0209     0.0002 </r>
       <r>   -14.8627     0.8524     0.0094 </r>
       <r>   -14.8519     4.5312     0.0582 </r>
       <r>   -14.8411     3.4899     0.0958 </r>
       <r>   -14.8303     0.3816     0.0999 </r>
       <r>   -14.8196     0.0052     0.1000 </r>
       <r>   -14.8088     0.0000     0.1000 </r>
       <r>   -14.7980     0.0000     0.1000 </r>
       <r>   -14.7872     0.0000     0.1000 </r>
       <r>   -14.7765     0.0000     0.1000 </r>
       <r>   -14.7657     0.0000     0.1000 </r>
       <r>   -14.7549     0.0068     0.1001 </r>
       <r>   -14.7441     0.4450     0.1049 </r>
       <r>   -14.7334     3.6938     0.1447 </r>
       <r>   -14.7226     4.3716     0.1918 </r>
       <r>   -14.7118     0.7475     0.1998 </r>
       <r>   -14.7010     0.0166     0.2000 </r>
       <r>   -14.6903     0.0010     0.2000 </r>
       <r>   -14.6795     0.1337     0.2015 </r>
       <r>   -14.6687     2.2304     0.2255 </r>
       <r>   -14.6579     5.1184     0.2806 </r>
       <r>   -14.6472     1.7192     0.2992 </r>
       <r>   -14.6364     0.0782     0.3000 </r>
       <r>   -14.6256     0.0004     0.3000 </r>
       <r>   -14.6148     0.0000     0.3000 </r>
       <r>   -14.6041     0.0000     0.3000 </r>
       <r>   -14.5933     0.0000     0.3000 </r>
       <r>   -14.5825     0.0000     0.3000 </r>
       <r>   -14.5717     0.0000     0.3000 </r>
       <r>   -14.5610     0.0000     0.3000 </r>
       <r>   -14.5502     0.0000     0.3000 </r>
       <r>   -14.5394     0.0000     0.3000 </r>
       <r>   -14.5286     0.0014     0.3000 </r>
       <r>   -14.5179     0.2201     0.3024 </r>
       <r>   -14.5071     4.0671     0.3462 </r>
       <r>   -14.4963    10.2781     0.4569 </r>
       <r>   -14.4855     3.8030     0.4979 </r>
       <r>   -14.4748     0.1917     0.5000 </r>
       <r>   -14.4640     0.0012     0.5000 </r>
       <r>   -14.4532     0.0000     0.5000 </r>
       <r>   -14.4425     0.0000     0.5000 </r>
       <r>   -14.4317     0.0000     0.5000 </r>
       <r>   -14.4209     0.0001     0.5000 </r>
       <r>   -14.4101     0.0368     0.5004 </r>
       <r>   -14.3994     2.1316     0.5234 </r>
       <r>   -14.3886    15.7334     0.6929 </r>
       <r>   -14.3778    16.6405     0.8722 </r>
       <r>   -14.3670     2.5331     0.8995 </r>
       <r>   -14.3563     0.0500     0.9000 </r>
       <r>   -14.3455     0.1042     0.9011 </r>
       <r>   -14.3347     2.7926     0.9312 </r>
       <r>   -14.3239    10.0228     1.0392 </r>
       <r>   -14.3132     5.2558     1.0958 </r>
       <r>   -14.3024     0.3834     1.1000 </r>
       <r>   -14.2916     0.0171     1.1001 </r>
       <r>   -14.2808     0.8925     1.1098 </r>
       <r>   -14.2701     7.3953     1.1894 </r>
       <r>   -14.2593     8.7370     1.2836 </r>
       <r>   -14.2485     1.4911     1.2996 </r>
       <r>   -14.2377     0.0330     1.3000 </r>
       <r>   -14.2270     0.0053     1.3001 </r>
       <r>   -14.2162     0.5001     1.3054 </r>
       <r>   -14.2054     5.8943     1.3690 </r>
       <r>   -14.1946     9.7413     1.4739 </r>
       <r>   -14.1839     2.3465     1.4992 </r>
       <r>   -14.1731     0.0749     1.5000 </r>
       <r>   -14.1623     0.0003     1.5000 </r>
       <r>   -14.1515     0.0000     1.5000 </r>
       <r>   -14.1408     0.0000     1.5000 </r>
       <r>   -14.1300     0.0000     1.5000 </r>
       <r>   -14.1192     0.0000     1.5000 </r>
       <r>   -14.1084     0.0000     1.5000 </r>
       <r>   -14.0977     0.0000     1.5000 </r>
       <r>   -14.0869     0.0000     1.5000 </r>
       <r>   -14.0761     0.0001     1.5000 </r>
       <r>   -14.0653     0.0471     1.5005 </r>
       <r>   -14.0546     2.4606     1.5270 </r>
       <r>   -14.0438    16.4908     1.7047 </r>
       <r>   -14.0330    15.8920     1.8759 </r>
       <r>   -14.0223     2.1958     1.8996 </r>
       <r>   -14.0115     0.0388     1.9000 </r>
       <r>   -14.0007     0.0001     1.9000 </r>
       <r>   -13.9899     0.0000     1.9000 </r>
       <r>   -13.9792     0.0000     1.9000 </r>
       <r>   -13.9684     0.0000     1.9000 </r>
       <r>   -13.9576     0.0057     1.9001 </r>
       <r>   -13.9468     0.6785     1.9074 </r>
       <r>   -13.9361     9.9524     2.0146 </r>
       <r>   -13.9253    20.2330     2.2326 </r>
       <r>   -13.9145     6.0145     2.2974 </r>
       <r>   -13.9037     0.2405     2.3000 </r>
       <r>   -13.8930     0.1016     2.3011 </r>
       <r>   -13.8822     3.7770     2.3418 </r>
       <r>   -13.8714    18.5948     2.5421 </r>
       <r>   -13.8606    13.2917     2.6853 </r>
       <r>   -13.8499     1.3439     2.6998 </r>
       <r>   -13.8391     0.0170     2.7000 </r>
       <r>   -13.8283     0.0000     2.7000 </r>
       <r>   -13.8175     0.0000     2.7000 </r>
       <r>   -13.8068     0.0000     2.7000 </r>
       <r>   -13.7960     0.0000     2.7000 </r>
       <r>   -13.7852     0.0000     2.7000 </r>
       <r>   -13.7744     0.0000     2.7000 </r>
       <r>   -13.7637     0.0000     2.7000 </r>
       <r>   -13.7529     0.0000     2.7000 </r>
       <r>   -13.7421     0.0000     2.7000 </r>
       <r>   -13.7313     0.0000     2.7000 </r>
       <r>   -13.7206     0.0000     2.7000 </r>
       <r>   -13.7098     0.0000     2.7000 </r>
       <r>   -13.6990     0.0000     2.7000 </r>
       <r>   -13.6882     0.0000     2.7000 </r>
       <r>   -13.6775     0.0000     2.7000 </r>
       <r>   -13.6667     0.0000     2.7000 </r>
       <r>   -13.6559     0.0000     2.7000 </r>
       <r>   -13.6451     0.0000     2.7000 </r>
       <r>   -13.6344     0.0000     2.7000 </r>
       <r>   -13.6236     0.0000     2.7000 </r>
       <r>   -13.6128     0.0000     2.7000 </r>
       <r>   -13.6021     0.0000     2.7000 </r>
       <r>   -13.5913     0.0000     2.7000 </r>
       <r>   -13.5805     0.0000     2.7000 </r>
       <r>   -13.5697     0.0060     2.7001 </r>
       <r>   -13.5590     0.5449     2.7059 </r>
       <r>   -13.5482     6.1087     2.7718 </r>
       <r>   -13.5374     9.6267     2.8755 </r>
       <r>   -13.5266     2.2091     2.8993 </r>
       <r>   -13.5159     0.0669     2.9000 </r>
       <r>   -13.5051     0.0004     2.9000 </r>
       <r>   -13.4943     0.0612     2.9007 </r>
       <r>   -13.4835     2.1037     2.9233 </r>
       <r>   -13.4728     9.5286     3.0260 </r>
       <r>   -13.4620     6.2793     3.0936 </r>
       <r>   -13.4512     0.5990     3.1001 </r>
       <r>   -13.4404     0.9935     3.1108 </r>
       <r>   -13.4297     7.6627     3.1934 </r>
       <r>   -13.4189     8.5073     3.2850 </r>
       <r>   -13.4081     1.3615     3.2997 </r>
       <r>   -13.3973     0.0281     3.3000 </r>
       <r>   -13.3866     0.0001     3.3000 </r>
       <r>   -13.3758     0.0000     3.3000 </r>
       <r>   -13.3650     0.0000     3.3000 </r>
       <r>   -13.3542     0.0000     3.3000 </r>
       <r>   -13.3435     0.0000     3.3000 </r>
       <r>   -13.3327     0.0000     3.3000 </r>
       <r>   -13.3219     0.0000     3.3000 </r>
       <r>   -13.3111     0.0000     3.3000 </r>
       <r>   -13.3004     0.0000     3.3000 </r>
       <r>   -13.2896     0.0000     3.3000 </r>
       <r>   -13.2788     0.0000     3.3000 </r>
       <r>   -13.2680     0.0000     3.3000 </r>
       <r>   -13.2573     0.0000     3.3000 </r>
       <r>   -13.2465     0.0000     3.3000 </r>
       <r>   -13.2357     0.0000     3.3000 </r>
       <r>   -13.2249     0.0000     3.3000 </r>
       <r>   -13.2142     0.0000     3.3000 </r>
       <r>   -13.2034     0.0000     3.3000 </r>
       <r>   -13.1926     0.0000     3.3000 </r>
       <r>   -13.1819     0.0000     3.3000 </r>
       <r>   -13.1711     0.0000     3.3000 </r>
       <r>   -13.1603     0.0000     3.3000 </r>
       <r>   -13.1495     0.0000     3.3000 </r>
       <r>   -13.1388     0.0002     3.3000 </r>
       <r>   -13.1280     0.0652     3.3007 </r>
       <r>   -13.1172     2.9635     3.3326 </r>
       <r>   -13.1064    17.4425     3.5206 </r>
       <r>   -13.0957    14.8284     3.6803 </r>
       <r>   -13.0849     1.7978     3.6997 </r>
       <r>   -13.0741     0.0276     3.7000 </r>
       <r>   -13.0633     0.0041     3.7000 </r>
       <r>   -13.0526     0.5788     3.7063 </r>
       <r>   -13.0418    10.5214     3.8196 </r>
       <r>   -13.0310    29.2550     4.1348 </r>
       <r>   -13.0202    14.1391     4.2872 </r>
       <r>   -13.0095     1.4906     4.3032 </r>
       <r>   -12.9987     6.9078     4.3777 </r>
       <r>   -12.9879    20.4766     4.5983 </r>
       <r>   -12.9771     8.9032     4.6942 </r>
       <r>   -12.9664     0.5326     4.7000 </r>
       <r>   -12.9556     0.0039     4.7000 </r>
       <r>   -12.9448     0.0030     4.7000 </r>
       <r>   -12.9340     0.3521     4.7038 </r>
       <r>   -12.9233     5.0603     4.7583 </r>
       <r>   -12.9125    10.0903     4.8671 </r>
       <r>   -12.9017     2.9413     4.8988 </r>
       <r>   -12.8909     0.1151     4.9000 </r>
       <r>   -12.8802     0.0381     4.9004 </r>
       <r>   -12.8694     1.6059     4.9177 </r>
       <r>   -12.8586     8.9193     5.0138 </r>
       <r>   -12.8478     7.1684     5.0910 </r>
       <r>   -12.8371     0.8195     5.0999 </r>
       <r>   -12.8263     0.0118     5.1000 </r>
       <r>   -12.8155     0.0000     5.1000 </r>
       <r>   -12.8048     0.0000     5.1000 </r>
       <r>   -12.7940     0.0000     5.1000 </r>
       <r>   -12.7832     0.0000     5.1000 </r>
       <r>   -12.7724     0.0000     5.1000 </r>
       <r>   -12.7617     0.0001     5.1000 </r>
       <r>   -12.7509     0.0567     5.1006 </r>
       <r>   -12.7401     2.7367     5.1301 </r>
       <r>   -12.7293    17.0401     5.3137 </r>
       <r>   -12.7186    15.2966     5.4785 </r>
       <r>   -12.7078     1.9630     5.4997 </r>
       <r>   -12.6970     0.0320     5.5000 </r>
       <r>   -12.6862     0.0001     5.5000 </r>
       <r>   -12.6755     0.0000     5.5000 </r>
       <r>   -12.6647     0.0000     5.5000 </r>
       <r>   -12.6539     0.0014     5.5000 </r>
       <r>   -12.6431     0.2718     5.5029 </r>
       <r>   -12.6324     6.4072     5.5720 </r>
       <r>   -12.6216    20.3649     5.7914 </r>
       <r>   -12.6108     9.6858     5.8958 </r>
       <r>   -12.6000     4.6601     5.9460 </r>
       <r>   -12.5893    11.2244     6.0669 </r>
       <r>   -12.5785    15.3131     6.2319 </r>
       <r>   -12.5677    19.8264     6.4455 </r>
       <r>   -12.5569     4.8952     6.4982 </r>
       <r>   -12.5462     0.1620     6.5000 </r>
       <r>   -12.5354     0.0006     6.5000 </r>
       <r>   -12.5246     0.0000     6.5000 </r>
       <r>   -12.5138     0.0000     6.5000 </r>
       <r>   -12.5031     0.0000     6.5000 </r>
       <r>   -12.4923     0.0001     6.5000 </r>
       <r>   -12.4815     0.0244     6.5003 </r>
       <r>   -12.4707     1.2542     6.5138 </r>
       <r>   -12.4600     8.2954     6.6032 </r>
       <r>   -12.4492     7.8935     6.6882 </r>
       <r>   -12.4384     1.0764     6.6998 </r>
       <r>   -12.4276     0.0196     6.7000 </r>
       <r>   -12.4169     0.1550     6.7017 </r>
       <r>   -12.4061     3.4230     6.7386 </r>
       <r>   -12.3953    10.2392     6.8489 </r>
       <r>   -12.3846     4.8604     6.9012 </r>
       <r>   -12.3738     3.7615     6.9418 </r>
       <r>   -12.3630     4.5318     6.9906 </r>
       <r>   -12.3522     0.8514     6.9998 </r>
       <r>   -12.3415     0.0209     7.0000 </r>
       <r>   -12.3307     0.0001     7.0000 </r>
       <r>   -12.3199     0.0000     7.0000 </r>
       <r>   -12.3091     0.0000     7.0000 </r>
       <r>   -12.2984     0.0000     7.0000 </r>
       <r>   -12.2876     0.0000     7.0000 </r>
       <r>   -12.2768     0.0000     7.0000 </r>
       <r>   -12.2660     0.0000     7.0000 </r>
       <r>   -12.2553     0.0000     7.0000 </r>
       <r>   -12.2445     0.0000     7.0000 </r>
       <r>   -12.2337     0.0000     7.0000 </r>
       <r>   -12.2229     0.0000     7.0000 </r>
       <r>   -12.2122     0.0000     7.0000 </r>
       <r>   -12.2014     0.0000     7.0000 </r>
       <r>   -12.1906     0.0000     7.0000 </r>
       <r>   -12.1798     0.0000     7.0000 </r>
       <r>   -12.1691     0.0039     7.0000 </r>
       <r>   -12.1583     0.5366     7.0058 </r>
       <r>   -12.1475     8.9452     7.1022 </r>
       <r>   -12.1367    21.0460     7.3290 </r>
       <r>   -12.1260    10.8983     7.4464 </r>
       <r>   -12.1152     4.3757     7.4935 </r>
       <r>   -12.1044     0.5899     7.4999 </r>
       <r>   -12.0936     0.0109     7.5000 </r>
       <r>   -12.0829     0.0000     7.5000 </r>
       <r>   -12.0721     0.0000     7.5000 </r>
       <r>   -12.0613     0.0000     7.5000 </r>
       <r>   -12.0505     0.0000     7.5000 </r>
       <r>   -12.0398     0.0090     7.5001 </r>
       <r>   -12.0290     0.9107     7.5099 </r>
       <r>   -12.0182    11.3290     7.6320 </r>
       <r>   -12.0074    19.7061     7.8443 </r>
       <r>   -11.9967     5.0009     7.8982 </r>
       <r>   -11.9859     0.1776     7.9001 </r>
       <r>   -11.9751     1.0096     7.9110 </r>
       <r>   -11.9644    15.6318     8.0794 </r>
       <r>   -11.9536    40.5030     8.5158 </r>
       <r>   -11.9428    22.3244     8.7563 </r>
       <r>   -11.9320     3.8536     8.7978 </r>
       <r>   -11.9213     0.2001     8.8000 </r>
       <r>   -11.9105     0.1741     8.8019 </r>
       <r>   -11.8997     5.7242     8.8635 </r>
       <r>   -11.8889    26.9433     9.1538 </r>
       <r>   -11.8782    20.4858     9.3746 </r>
       <r>   -11.8674     7.2108     9.4522 </r>
       <r>   -11.8566    19.5625     9.6630 </r>
       <r>   -11.8458    11.7173     9.7893 </r>
       <r>   -11.8351     0.9859     9.7999 </r>
       <r>   -11.8243     0.0103     9.8000 </r>
       <r>   -11.8135     0.0000     9.8000 </r>
       <r>   -11.8027     0.0000     9.8000 </r>
       <r>   -11.7920     0.0000     9.8000 </r>
       <r>   -11.7812     0.0000     9.8000 </r>
       <r>   -11.7704     0.0000     9.8000 </r>
       <r>   -11.7596     0.0000     9.8000 </r>
       <r>   -11.7489     0.0000     9.8000 </r>
       <r>   -11.7381     0.0000     9.8000 </r>
       <r>   -11.7273     0.0000     9.8000 </r>
       <r>   -11.7165     0.0000     9.8000 </r>
       <r>   -11.7058     0.0000     9.8000 </r>
       <r>   -11.6950     0.0000     9.8000 </r>
       <r>   -11.6842     0.0000     9.8000 </r>
       <r>   -11.6734     0.0002     9.8000 </r>
       <r>   -11.6627     0.0632     9.8007 </r>
       <r>   -11.6519     2.1417     9.8238 </r>
       <r>   -11.6411     9.5651     9.9268 </r>
       <r>   -11.6303     6.2171     9.9938 </r>
       <r>   -11.6196     0.5688     9.9999 </r>
       <r>   -11.6088     0.0065    10.0000 </r>
       <r>   -11.5980     0.0000    10.0000 </r>
       <r>   -11.5872     0.0000    10.0000 </r>
       <r>   -11.5765     0.0000    10.0000 </r>
       <r>   -11.5657     0.0000    10.0000 </r>
       <r>   -11.5549     0.0000    10.0000 </r>
       <r>   -11.5442     0.0000    10.0000 </r>
       <r>   -11.5334     0.0000    10.0000 </r>
       <r>   -11.5226     0.0000    10.0000 </r>
       <r>   -11.5118     0.0000    10.0000 </r>
       <r>   -11.5011     0.0000    10.0000 </r>
       <r>   -11.4903     0.0047    10.0001 </r>
       <r>   -11.4795     0.4678    10.0051 </r>
       <r>   -11.4687     5.7302    10.0668 </r>
       <r>   -11.4580     9.8223    10.1727 </r>
       <r>   -11.4472     2.4557    10.1991 </r>
       <r>   -11.4364     0.0815    10.2000 </r>
       <r>   -11.4256     0.0003    10.2000 </r>
       <r>   -11.4149     0.0000    10.2000 </r>
       <r>   -11.4041     0.0000    10.2000 </r>
       <r>   -11.3933     0.0000    10.2000 </r>
       <r>   -11.3825     0.0000    10.2000 </r>
       <r>   -11.3718     0.0000    10.2000 </r>
       <r>   -11.3610     0.0000    10.2000 </r>
       <r>   -11.3502     0.0000    10.2000 </r>
       <r>   -11.3394     0.0000    10.2000 </r>
       <r>   -11.3287     0.0000    10.2000 </r>
       <r>   -11.3179     0.0000    10.2000 </r>
       <r>   -11.3071     0.0000    10.2000 </r>
       <r>   -11.2963     0.0000    10.2000 </r>
       <r>   -11.2856     0.0000    10.2000 </r>
       <r>   -11.2748     0.0000    10.2000 </r>
       <r>   -11.2640     0.0006    10.2000 </r>
       <r>   -11.2532     0.1615    10.2017 </r>
       <r>   -11.2425     4.8856    10.2544 </r>
       <r>   -11.2317    19.6263    10.4658 </r>
       <r>   -11.2209    11.4986    10.5897 </r>
       <r>   -11.2101     0.9430    10.5999 </r>
       <r>   -11.1994     0.0096    10.6000 </r>
       <r>   -11.1886     0.0001    10.6000 </r>
       <r>   -11.1778     0.0387    10.6004 </r>
       <r>   -11.1670     2.1953    10.6241 </r>
       <r>   -11.1563    16.0699    10.7972 </r>
       <r>   -11.1455    21.6819    11.0308 </r>
       <r>   -11.1347    22.2885    11.2710 </r>
       <r>   -11.1240    11.1065    11.3906 </r>
       <r>   -11.1132     0.8613    11.3999 </r>
       <r>   -11.1024     0.0083    11.4000 </r>
       <r>   -11.0916     0.0000    11.4000 </r>
       <r>   -11.0809     0.0000    11.4000 </r>
       <r>   -11.0701     0.0000    11.4000 </r>
       <r>   -11.0593     0.0000    11.4000 </r>
       <r>   -11.0485     0.0000    11.4000 </r>
       <r>   -11.0378     0.0000    11.4000 </r>
       <r>   -11.0270     0.0000    11.4000 </r>
       <r>   -11.0162     0.0000    11.4000 </r>
       <r>   -11.0054     0.0004    11.4000 </r>
       <r>   -10.9947     0.0916    11.4010 </r>
       <r>   -10.9839     2.6122    11.4291 </r>
       <r>   -10.9731     9.9242    11.5361 </r>
       <r>   -10.9623     5.5041    11.5954 </r>
       <r>   -10.9516     0.4260    11.6000 </r>
       <r>   -10.9408     0.0041    11.6000 </r>
       <r>   -10.9300     0.0000    11.6000 </r>
       <r>   -10.9192     0.0000    11.6000 </r>
       <r>   -10.9085     0.0032    11.6000 </r>
       <r>   -10.8977     0.3677    11.6040 </r>
       <r>   -10.8869     5.1591    11.6596 </r>
       <r>   -10.8761    10.0574    11.7679 </r>
       <r>   -10.8654     2.8921    11.7991 </r>
       <r>   -10.8546     1.4339    11.8146 </r>
       <r>   -10.8438     8.4371    11.9055 </r>
       <r>   -10.8330     7.7412    11.9889 </r>
       <r>   -10.8223     1.0164    11.9998 </r>
       <r>   -10.8115     0.0170    12.0000 </r>
       <r>   -10.8007     0.0000    12.0000 </r>
       <r>   -10.7899     0.0000    12.0000 </r>
       <r>   -10.7792     0.0000    12.0000 </r>
       <r>   -10.7684     0.0000    12.0000 </r>
       <r>   -10.7576     0.0000    12.0000 </r>
       <r>   -10.7468     0.0000    12.0000 </r>
       <r>   -10.7361     0.0000    12.0000 </r>
       <r>   -10.7253     0.0000    12.0000 </r>
       <r>   -10.7145     0.0000    12.0000 </r>
       <r>   -10.7038     0.0000    12.0000 </r>
       <r>   -10.6930     0.0000    12.0000 </r>
       <r>   -10.6822     0.0000    12.0000 </r>
       <r>   -10.6714     0.0000    12.0000 </r>
       <r>   -10.6607     0.0000    12.0000 </r>
       <r>   -10.6499     0.0000    12.0000 </r>
       <r>   -10.6391     0.0000    12.0000 </r>
       <r>   -10.6283     0.0000    12.0000 </r>
       <r>   -10.6176     0.0000    12.0000 </r>
       <r>   -10.6068     0.0000    12.0000 </r>
       <r>   -10.5960     0.0000    12.0000 </r>
       <r>   -10.5852     0.0000    12.0000 </r>
       <r>   -10.5745     0.0000    12.0000 </r>
       <r>   -10.5637     0.0000    12.0000 </r>
       <r>   -10.5529     0.0000    12.0000 </r>
       <r>   -10.5421     0.0000    12.0000 </r>
       <r>   -10.5314     0.0000    12.0000 </r>
       <r>   -10.5206     0.0000    12.0000 </r>
       <r>   -10.5098     0.0000    12.0000 </r>
       <r>   -10.4990     0.0000    12.0000 </r>
       <r>   -10.4883     0.0000    12.0000 </r>
       <r>   -10.4775     0.0048    12.0001 </r>
       <r>   -10.4667     0.4752    12.0052 </r>
       <r>   -10.4559     5.7682    12.0673 </r>
       <r>   -10.4452     9.8040    12.1730 </r>
       <r>   -10.4344     2.4301    12.1991 </r>
       <r>   -10.4236     0.0799    12.2000 </r>
       <r>   -10.4128     0.0003    12.2000 </r>
       <r>   -10.4021     0.0000    12.2000 </r>
       <r>   -10.3913     0.0000    12.2000 </r>
       <r>   -10.3805     0.0000    12.2000 </r>
       <r>   -10.3697     0.0000    12.2000 </r>
       <r>   -10.3590     0.0000    12.2000 </r>
       <r>   -10.3482     0.0000    12.2000 </r>
       <r>   -10.3374     0.0000    12.2000 </r>
       <r>   -10.3267     0.0000    12.2000 </r>
       <r>   -10.3159     0.0000    12.2000 </r>
       <r>   -10.3051     0.0000    12.2000 </r>
       <r>   -10.2943     0.0000    12.2000 </r>
       <r>   -10.2836     0.0000    12.2000 </r>
       <r>   -10.2728     0.0000    12.2000 </r>
       <r>   -10.2620     0.0000    12.2000 </r>
       <r>   -10.2512     0.0000    12.2000 </r>
       <r>   -10.2405     0.0050    12.2001 </r>
       <r>   -10.2297     0.4857    12.2053 </r>
       <r>   -10.2189     5.8221    12.2680 </r>
       <r>   -10.2081     9.7776    12.3734 </r>
       <r>   -10.1974     2.3941    12.3992 </r>
       <r>   -10.1866     0.0777    12.4000 </r>
       <r>   -10.1758     0.0003    12.4000 </r>
       <r>   -10.1650     0.0000    12.4000 </r>
       <r>   -10.1543     0.0000    12.4000 </r>
       <r>   -10.1435     0.0000    12.4000 </r>
       <r>   -10.1327     0.0000    12.4000 </r>
       <r>   -10.1219     0.0000    12.4000 </r>
       <r>   -10.1112     0.0000    12.4000 </r>
       <r>   -10.1004     0.0000    12.4000 </r>
       <r>   -10.0896     0.0000    12.4000 </r>
       <r>   -10.0788     0.0000    12.4000 </r>
       <r>   -10.0681     0.0062    12.4001 </r>
       <r>   -10.0573     0.5744    12.4063 </r>
       <r>   -10.0465     7.7235    12.4895 </r>
       <r>   -10.0357    23.7563    12.7454 </r>
       <r>   -10.0250    20.1720    12.9628 </r>
       <r>   -10.0142     3.3757    12.9991 </r>
       <r>   -10.0034     0.0795    13.0000 </r>
       <r>    -9.9926     0.0002    13.0000 </r>
       <r>    -9.9819     0.0000    13.0000 </r>
       <r>    -9.9711     0.0000    13.0000 </r>
       <r>    -9.9603     0.0000    13.0000 </r>
       <r>    -9.9495     0.0000    13.0000 </r>
       <r>    -9.9388     0.0000    13.0000 </r>
       <r>    -9.9280     0.0000    13.0000 </r>
       <r>    -9.9172     0.0000    13.0000 </r>
       <r>    -9.9065     0.0000    13.0000 </r>
       <r>    -9.8957     0.0000    13.0000 </r>
       <r>    -9.8849     0.0001    13.0000 </r>
       <r>    -9.8741     0.0289    13.0003 </r>
       <r>    -9.8634     1.8483    13.0202 </r>
       <r>    -9.8526    14.9760    13.1816 </r>
       <r>    -9.8418    17.3184    13.3682 </r>
       <r>    -9.8310     2.8910    13.3993 </r>
       <r>    -9.8203     0.0624    13.4000 </r>
       <r>    -9.8095     0.0002    13.4000 </r>
       <r>    -9.7987     0.0000    13.4000 </r>
       <r>    -9.7879     0.0000    13.4000 </r>
       <r>    -9.7772     0.0000    13.4000 </r>
       <r>    -9.7664     0.0000    13.4000 </r>
       <r>    -9.7556     0.0099    13.4001 </r>
       <r>    -9.7448     0.9658    13.4105 </r>
       <r>    -9.7341    11.6156    13.5357 </r>
       <r>    -9.7233    19.5694    13.7465 </r>
       <r>    -9.7125     4.8073    13.7983 </r>
       <r>    -9.7017     0.1566    13.8000 </r>
       <r>    -9.6910     0.0006    13.8000 </r>
       <r>    -9.6802     0.0000    13.8000 </r>
       <r>    -9.6694     0.0000    13.8000 </r>
       <r>    -9.6586     0.0000    13.8000 </r>
       <r>    -9.6479     0.0000    13.8000 </r>
       <r>    -9.6371     0.0000    13.8000 </r>
       <r>    -9.6263     0.0000    13.8000 </r>
       <r>    -9.6155     0.0000    13.8000 </r>
       <r>    -9.6048     0.0000    13.8000 </r>
       <r>    -9.5940     0.0000    13.8000 </r>
       <r>    -9.5832     0.0000    13.8000 </r>
       <r>    -9.5724     0.0000    13.8000 </r>
       <r>    -9.5617     0.0000    13.8000 </r>
       <r>    -9.5509     0.0000    13.8000 </r>
       <r>    -9.5401     0.0000    13.8000 </r>
       <r>    -9.5293     0.0000    13.8000 </r>
       <r>    -9.5186     0.0000    13.8000 </r>
       <r>    -9.5078     0.0000    13.8000 </r>
       <r>    -9.4970     0.0000    13.8000 </r>
       <r>    -9.4863     0.0000    13.8000 </r>
       <r>    -9.4755     0.0000    13.8000 </r>
       <r>    -9.4647     0.0000    13.8000 </r>
       <r>    -9.4539     0.0000    13.8000 </r>
       <r>    -9.4432     0.0000    13.8000 </r>
       <r>    -9.4324     0.0000    13.8000 </r>
       <r>    -9.4216     0.0000    13.8000 </r>
       <r>    -9.4108     0.0000    13.8000 </r>
       <r>    -9.4001     0.0000    13.8000 </r>
       <r>    -9.3893     0.0000    13.8000 </r>
       <r>    -9.3785     0.0000    13.8000 </r>
       <r>    -9.3677     0.0000    13.8000 </r>
       <r>    -9.3570     0.0000    13.8000 </r>
       <r>    -9.3462     0.0000    13.8000 </r>
       <r>    -9.3354     0.0000    13.8000 </r>
       <r>    -9.3246     0.0000    13.8000 </r>
       <r>    -9.3139     0.0000    13.8000 </r>
       <r>    -9.3031     0.0000    13.8000 </r>
       <r>    -9.2923     0.0000    13.8000 </r>
       <r>    -9.2815     0.0000    13.8000 </r>
       <r>    -9.2708     0.0000    13.8000 </r>
       <r>    -9.2600     0.0000    13.8000 </r>
       <r>    -9.2492     0.0000    13.8000 </r>
       <r>    -9.2384     0.0000    13.8000 </r>
       <r>    -9.2277     0.0000    13.8000 </r>
       <r>    -9.2169     0.0000    13.8000 </r>
       <r>    -9.2061     0.0000    13.8000 </r>
       <r>    -9.1953     0.0000    13.8000 </r>
       <r>    -9.1846     0.0000    13.8000 </r>
       <r>    -9.1738     0.0000    13.8000 </r>
       <r>    -9.1630     0.0000    13.8000 </r>
       <r>    -9.1522     0.0000    13.8000 </r>
       <r>    -9.1415     0.0000    13.8000 </r>
       <r>    -9.1307     0.0099    13.8001 </r>
       <r>    -9.1199     0.9719    13.8106 </r>
       <r>    -9.1091    12.4113    13.9443 </r>
       <r>    -9.0984    30.2940    14.2707 </r>
       <r>    -9.0876    24.8487    14.5384 </r>
       <r>    -9.0768     7.8751    14.6233 </r>
       <r>    -9.0661     9.8918    14.7299 </r>
       <r>    -9.0553     5.9859    14.7944 </r>
       <r>    -9.0445     0.5188    14.7999 </r>
       <r>    -9.0337     0.0417    14.8004 </r>
       <r>    -9.0230     2.3587    14.8258 </r>
       <r>    -9.0122    23.7345    15.0815 </r>
       <r>    -9.0014    46.7304    15.5850 </r>
       <r>    -8.9906    18.6790    15.7863 </r>
       <r>    -8.9799     1.5383    15.8028 </r>
       <r>    -8.9691     6.4511    15.8723 </r>
       <r>    -8.9583    21.0664    16.0993 </r>
       <r>    -8.9475    19.4994    16.3094 </r>
       <r>    -8.9368    20.8028    16.5336 </r>
       <r>    -8.9260     5.9324    16.5975 </r>
       <r>    -8.9152     0.2335    16.6000 </r>
       <r>    -8.9044     0.0011    16.6000 </r>
       <r>    -8.8937     0.0000    16.6000 </r>
       <r>    -8.8829     0.0000    16.6000 </r>
       <r>    -8.8721     0.0033    16.6000 </r>
       <r>    -8.8613     0.3765    16.6041 </r>
       <r>    -8.8506     5.6173    16.6646 </r>
       <r>    -8.8398    17.9980    16.8585 </r>
       <r>    -8.8290    23.3981    17.1106 </r>
       <r>    -8.8182     7.8899    17.1956 </r>
       <r>    -8.8075     0.4023    17.2000 </r>
       <r>    -8.7967     0.0025    17.2000 </r>
       <r>    -8.7859     0.0000    17.2000 </r>
       <r>    -8.7751     0.0000    17.2000 </r>
       <r>    -8.7644     0.0000    17.2000 </r>
       <r>    -8.7536     0.0004    17.2000 </r>
       <r>    -8.7428     0.0926    17.2010 </r>
       <r>    -8.7320     2.6268    17.2293 </r>
       <r>    -8.7213     9.9329    17.3363 </r>
       <r>    -8.7105     5.4836    17.3954 </r>
       <r>    -8.6997     0.4224    17.4000 </r>
       <r>    -8.6889     0.0040    17.4000 </r>
       <r>    -8.6782     0.0000    17.4000 </r>
       <r>    -8.6674     0.0000    17.4000 </r>
       <r>    -8.6566     0.0000    17.4000 </r>
       <r>    -8.6459     0.0000    17.4000 </r>
       <r>    -8.6351     0.0001    17.4000 </r>
       <r>    -8.6243     0.0269    17.4003 </r>
       <r>    -8.6135     0.9798    17.4108 </r>
       <r>    -8.6028     4.6893    17.4614 </r>
       <r>    -8.5920     3.2756    17.4967 </r>
       <r>    -8.5812     1.2511    17.5101 </r>
       <r>    -8.5704     7.5109    17.5911 </r>
       <r>    -8.5597     8.6430    17.6842 </r>
       <r>    -8.5489     1.4365    17.6997 </r>
       <r>    -8.5381     0.0793    17.7005 </r>
       <r>    -8.5273     1.3454    17.7150 </r>
       <r>    -8.5166     4.9856    17.7687 </r>
       <r>    -8.5058     2.8153    17.7991 </r>
       <r>    -8.4950     2.3062    17.8239 </r>
       <r>    -8.4842     5.1364    17.8793 </r>
       <r>    -8.4735     1.8354    17.8990 </r>
       <r>    -8.4627     0.0892    17.9000 </r>
       <r>    -8.4519     0.0005    17.9000 </r>
       <r>    -8.4411     0.0000    17.9000 </r>
       <r>    -8.4304     0.0000    17.9000 </r>
       <r>    -8.4196     0.0006    17.9000 </r>
       <r>    -8.4088     0.1586    17.9017 </r>
       <r>    -8.3980     4.8398    17.9539 </r>
       <r>    -8.3873    19.5933    18.1650 </r>
       <r>    -8.3765    11.5669    18.2896 </r>
       <r>    -8.3657     0.9562    18.2999 </r>
       <r>    -8.3549     0.0098    18.3000 </r>
       <r>    -8.3442     0.0006    18.3000 </r>
       <r>    -8.3334     0.1575    18.3017 </r>
       <r>    -8.3226     4.8217    18.3537 </r>
       <r>    -8.3118    19.5801    18.5646 </r>
       <r>    -8.3011    11.5939    18.6895 </r>
       <r>    -8.2903     0.9615    18.6999 </r>
       <r>    -8.2795     0.0111    18.7000 </r>
       <r>    -8.2687     0.2044    18.7022 </r>
       <r>    -8.2580     3.9234    18.7445 </r>
       <r>    -8.2472    10.2810    18.8553 </r>
       <r>    -8.2364     3.9446    18.8978 </r>
       <r>    -8.2257     0.2066    18.9000 </r>
       <r>    -8.2149     0.0069    18.9001 </r>
       <r>    -8.2041     0.6731    18.9073 </r>
       <r>    -8.1933     9.9168    19.0142 </r>
       <r>    -8.1826    20.2436    19.2323 </r>
       <r>    -8.1718     6.0440    19.2974 </r>
       <r>    -8.1610     0.4554    19.3023 </r>
       <r>    -8.1502     4.1095    19.3466 </r>
       <r>    -8.1395    14.2223    19.4998 </r>
       <r>    -8.1287    23.9189    19.7575 </r>
       <r>    -8.1179    26.2925    20.0408 </r>
       <r>    -8.1071    20.0251    20.2566 </r>
       <r>    -8.0964     3.9242    20.2988 </r>
       <r>    -8.0856     0.1070    20.3000 </r>
       <r>    -8.0748     0.0003    20.3000 </r>
       <r>    -8.0640     0.0000    20.3000 </r>
       <r>    -8.0533     0.0000    20.3000 </r>
       <r>    -8.0425     0.0000    20.3000 </r>
       <r>    -8.0317     0.0000    20.3000 </r>
       <r>    -8.0209     0.0000    20.3000 </r>
       <r>    -8.0102     0.0001    20.3000 </r>
       <r>    -7.9994     0.0417    20.3005 </r>
       <r>    -7.9886     1.7027    20.3188 </r>
       <r>    -7.9778     9.0594    20.4164 </r>
       <r>    -7.9671     6.9838    20.4917 </r>
       <r>    -7.9563     0.7661    20.4999 </r>
       <r>    -7.9455     0.2620    20.5027 </r>
       <r>    -7.9347     4.3336    20.5494 </r>
       <r>    -7.9240    10.2566    20.6599 </r>
       <r>    -7.9132     3.8259    20.7012 </r>
       <r>    -7.9024     6.5925    20.7722 </r>
       <r>    -7.8916    20.3697    20.9917 </r>
       <r>    -7.8809     9.4465    21.0934 </r>
       <r>    -7.8701     0.6051    21.0999 </r>
       <r>    -7.8593     0.0047    21.1000 </r>
       <r>    -7.8486     0.0000    21.1000 </r>
       <r>    -7.8378     0.0000    21.1000 </r>
       <r>    -7.8270     0.0000    21.1000 </r>
       <r>    -7.8162     0.0000    21.1000 </r>
       <r>    -7.8055     0.0003    21.1000 </r>
       <r>    -7.7947     0.0803    21.1009 </r>
       <r>    -7.7839     2.4354    21.1271 </r>
       <r>    -7.7731     9.8078    21.2328 </r>
       <r>    -7.7624     5.7604    21.2948 </r>
       <r>    -7.7516     0.4736    21.2999 </r>
       <r>    -7.7408     0.0048    21.3000 </r>
       <r>    -7.7300     0.0000    21.3000 </r>
       <r>    -7.7193     0.0000    21.3000 </r>
       <r>    -7.7085     0.0000    21.3000 </r>
       <r>    -7.6977     0.0000    21.3000 </r>
       <r>    -7.6869     0.0000    21.3000 </r>
       <r>    -7.6762     0.0000    21.3000 </r>
       <r>    -7.6654     0.0000    21.3000 </r>
[...]
        <r>  0.0148  0.0006  0.0320  0.0228  0.0000  0.0000  0.0000  0.0000  0.0000 </r>
        <r>  0.0071  0.0056  0.0344  0.0179  0.0000  0.0000  0.0000  0.0000  0.0000 </r>
        <r>  0.0141  0.0156  0.0003  0.0052  0.0000  0.0000  0.0000  0.0000  0.0000 </r>
        <r>  0.0064  0.0205  0.0027  0.0003  0.0000  0.0000  0.0000  0.0000  0.0000 </r>
        <r>  0.0083  0.0008  0.0197  0.0140  0.0000  0.0000  0.0000  0.0000  0.0000 </r>
        <r>  0.0033  0.0046  0.0212  0.0107  0.0000  0.0000  0.0000  0.0000  0.0000 </r>
        <r>  0.0084  0.0126  0.0003  0.0030  0.0000  0.0000  0.0000  0.0000  0.0000 </r>
        <r>  0.0031  0.0160  0.0017  0.0001  0.0000  0.0000  0.0000  0.0000  0.0000 </r>
       </set>
       <set comment="band 25">
        <r>  0.0001  0.0079  0.0001  0.0059  0.0000  0.0000  0.0000  0.0000  0.0000 </r>
        <r>  0.0062  0.0293  0.0066  0.0000  0.0000  0.0000  0.0000  0.0000  0.0000 </r>
        <r>  0.0003  0.0003  0.0010  0.0030  0.0000  0.0000  0.0000  0.0000  0.0000 </r>
        <r>  0.0023  0.0259  0.0043  0.0005  0.0000  0.0000  0.0000  0.0000  0.0000 </r>
        <r>  0.0001  0.0131  0.0019  0.0114  0.0000  0.0000  0.0000  0.0000  0.0000 </r>
        <r>  0.0088  0.0693  0.0145  0.0011  0.0000  0.0000  0.0000  0.0000  0.0000 </r>
        <r>  0.0007  0.0012  0.0001  0.0104  0.0000  0.0000  0.0000  0.0000  0.0000 </r>
        <r>  0.0094  0.0574  0.0127  0.0001  0.0000  0.0000  0.0000  0.0000  0.0000 </r>
        <r>  0.0000  0.0044  0.0032  0.0043  0.0000  0.0000  0.0000  0.0000  0.0000 </r>
        <r>  0.0020  0.0300  0.0064  0.0018  0.0000  0.0000  0.0000  0.0000  0.0000 </r>
        <r>  0.0003  0.0013  0.0007  0.0065  0.0000  0.0000  0.0000  0.0000  0.0000 </r>
        <r>  0.0064  0.0227  0.0072  0.0006  0.0000  0.0000  0.0000  0.0000  0.0000 </r>
       </set>
       <set comment="band 26">
        <r>  0.0064  0.0227  0.0072  0.0006  0.0000  0.0000  0.0000  0.0000  0.0000 </r>
        <r>  0.0003  0.0013  0.0007  0.0065  0.0000  0.0000  0.0000  0.0000  0.0000 </r>
        <r>  0.0020  0.0300  0.0064  0.0018  0.0000  0.0000  0.0000  0.0000  0.0000 </r>
        <r>  0.0000  0.0044  0.0032  0.0043  0.0000  0.0000  0.0000  0.0000  0.0000 </r>
        <r>  0.0094  0.0574  0.0127  0.0001  0.0000  0.0000  0.0000  0.0000  0.0000 </r>
        <r>  0.0007  0.0012  0.0001  0.0104  0.0000  0.0000  0.0000  0.0000  0.0000 </r>
        <r>  0.0088  0.0693  0.0145  0.0011  0.0000  0.0000  0.0000  0.0000  0.0000 </r>
        <r>  0.0001  0.0131  0.0019  0.0114  0.0000  0.0000  0.0000  0.0000  0.0000 </r>
        <r>  0.0023  0.0259  0.0043  0.0005  0.0000  0.0000  0.0000  0.0000  0.0000 </r>
        <r>  0.0003  0.0003  0.0010  0.0030  0.0000  0.0000  0.0000  0.0000  0.0000 </r>
        <r>  0.0062  0.0293  0.0066  0.0000  0.0000  0.0000  0.0000  0.0000  0.0000 </r>
        <r>  0.0001  0.0079  0.0001  0.0059  0.0000  0.0000  0.0000  0.0000  0.0000 </r>
       </set>
       <set comment="band 27">
        <r>  0.0005  0.0027  0.0004  0.0113  0.0000  0.0000  0.0000  0.0000  0.0000 </r>
        <r>  0.0108  0.0648  0.0135  0.0004  0.0000  0.0000  0.0000  0.0000  0.0000 </r>
        <r>  0.0003  0.0075  0.0008  0.0109  0.0000  0.0000  0.0000  0.0000  0.0000 </r>
        <r>  0.0096  0.0695  0.0133  0.0005  0.0000  0.0000  0.0000  0.0000  0.0000 </r>
        <r>  0.0000  0.0006  0.0028  0.0003  0.0000  0.0000  0.0000  0.0000  0.0000 </r>
        <r>  0.0006  0.0002  0.0001  0.0018  0.0000  0.0000  0.0000  0.0000  0.0000 </r>
        <r>  0.0001  0.0006  0.0028  0.0001  0.0000  0.0000  0.0000  0.0000  0.0000 </r>
        <r>  0.0006  0.0001  0.0001  0.0016  0.0000  0.0000  0.0000  0.0000  0.0000 </r>
        <r>  0.0004  0.0028  0.0004  0.0107  0.0000  0.0000  0.0000  0.0000  0.0000 </r>
        <r>  0.0097  0.0648  0.0128  0.0003  0.0000  0.0000  0.0000  0.0000  0.0000 </r>
        <r>  0.0004  0.0073  0.0008  0.0115  0.0000  0.0000  0.0000  0.0000  0.0000 </r>
        <r>  0.0107  0.0695  0.0139  0.0005  0.0000  0.0000  0.0000  0.0000  0.0000 </r>
       </set>
       <set comment="band 28">
        <r>  0.0107  0.0695  0.0139  0.0005  0.0000  0.0000  0.0000  0.0000  0.0000 </r>
        <r>  0.0004  0.0073  0.0008  0.0115  0.0000  0.0000  0.0000  0.0000  0.0000 </r>
        <r>  0.0097  0.0648  0.0128  0.0003  0.0000  0.0000  0.0000  0.0000  0.0000 </r>
        <r>  0.0004  0.0028  0.0004  0.0107  0.0000  0.0000  0.0000  0.0000  0.0000 </r>
        <r>  0.0006  0.0001  0.0001  0.0016  0.0000  0.0000  0.0000  0.0000  0.0000 </r>
        <r>  0.0001  0.0006  0.0028  0.0001  0.0000  0.0000  0.0000  0.0000  0.0000 </r>
        <r>  0.0006  0.0002  0.0001  0.0018  0.0000  0.0000  0.0000  0.0000  0.0000 </r>
        <r>  0.0000  0.0006  0.0028  0.0003  0.0000  0.0000  0.0000  0.0000  0.0000 </r>
        <r>  0.0096  0.0695  0.0133  0.0005  0.0000  0.0000  0.0000  0.0000  0.0000 </r>
        <r>  0.0003  0.0075  0.0008  0.0109  0.0000  0.0000  0.0000  0.0000  0.0000 </r>
        <r>  0.0108  0.0648  0.0135  0.0004  0.0000  0.0000  0.0000  0.0000  0.0000 </r>
        <r>  0.0005  0.0027  0.0004  0.0113  0.0000  0.0000  0.0000  0.0000  0.0000 </r>
       </set>
       <set comment="band 29">
        <r>  0.0039  0.0320  0.0047  0.0013  0.0000  0.0000  0.0000  0.0000  0.0000 </r>
        <r>  0.0015  0.0126  0.0017  0.0036  0.0000  0.0000  0.0000  0.0000  0.0000 </r>
        <r>  0.0056  0.0319  0.0042  0.0016  0.0000  0.0000  0.0000  0.0000  0.0000 </r>
        <r>  0.0026  0.0151  0.0015  0.0045  0.0000  0.0000  0.0000  0.0000  0.0000 </r>
        <r>  0.0073  0.0500  0.0089  0.0032  0.0000  0.0000  0.0000  0.0000  0.0000 </r>
        <r>  0.0027  0.0188  0.0035  0.0080  0.0000  0.0000  0.0000  0.0000  0.0000 </r>
        <r>  0.0085  0.0544  0.0090  0.0031  0.0000  0.0000  0.0000  0.0000  0.0000 </r>
        <r>  0.0038  0.0232  0.0036  0.0078  0.0000  0.0000  0.0000  0.0000  0.0000 </r>
        <r>  0.0048  0.0261  0.0061  0.0032  0.0000  0.0000  0.0000  0.0000  0.0000 </r>
        <r>  0.0017  0.0093  0.0034  0.0061  0.0000  0.0000  0.0000  0.0000  0.0000 </r>
        <r>  0.0042  0.0326  0.0070  0.0027  0.0000  0.0000  0.0000  0.0000  0.0000 </r>
        <r>  0.0017  0.0131  0.0040  0.0050  0.0000  0.0000  0.0000  0.0000  0.0000 </r>
       </set>
       <set comment="band 30">
        <r>  0.0017  0.0131  0.0040  0.0050  0.0000  0.0000  0.0000  0.0000  0.0000 </r>
        <r>  0.0042  0.0326  0.0070  0.0027  0.0000  0.0000  0.0000  0.0000  0.0000 </r>
        <r>  0.0017  0.0093  0.0034  0.0061  0.0000  0.0000  0.0000  0.0000  0.0000 </r>
        <r>  0.0048  0.0261  0.0061  0.0032  0.0000  0.0000  0.0000  0.0000  0.0000 </r>
        <r>  0.0038  0.0232  0.0036  0.0078  0.0000  0.0000  0.0000  0.0000  0.0000 </r>
        <r>  0.0085  0.0544  0.0090  0.0031  0.0000  0.0000  0.0000  0.0000  0.0000 </r>
        <r>  0.0027  0.0188  0.0035  0.0080  0.0000  0.0000  0.0000  0.0000  0.0000 </r>
        <r>  0.0073  0.0500  0.0089  0.0032  0.0000  0.0000  0.0000  0.0000  0.0000 </r>
        <r>  0.0026  0.0151  0.0015  0.0045  0.0000  0.0000  0.0000  0.0000  0.0000 </r>
        <r>  0.0056  0.0319  0.0042  0.0016  0.0000  0.0000  0.0000  0.0000  0.0000 </r>
        <r>  0.0015  0.0126  0.0017  0.0036  0.0000  0.0000  0.0000  0.0000  0.0000 </r>
        <r>  0.0039  0.0320  0.0047  0.0013  0.0000  0.0000  0.0000  0.0000  0.0000 </r>
       </set>
       <set comment="band 31">
        <r>  0.0012  0.0072  0.0003  0.0011  0.0000  0.0000  0.0000  0.0000  0.0000 </r>
        <r>  0.0027  0.0147  0.0004  0.0005  0.0000  0.0000  0.0000  0.0000  0.0000 </r>
        <r>  0.0013  0.0044  0.0006  0.0009  0.0000  0.0000  0.0000  0.0000  0.0000 </r>
        <r>  0.0028  0.0095  0.0003  0.0004  0.0000  0.0000  0.0000  0.0000  0.0000 </r>
        <r>  0.0070  0.0259  0.0016  0.0025  0.0000  0.0000  0.0000  0.0000  0.0000 </r>
        <r>  0.0113  0.0414  0.0017  0.0013  0.0000  0.0000  0.0000  0.0000  0.0000 </r>
        <r>  0.0051  0.0180  0.0002  0.0033  0.0000  0.0000  0.0000  0.0000  0.0000 </r>
        <r>  0.0094  0.0336  0.0003  0.0021  0.0000  0.0000  0.0000  0.0000  0.0000 </r>
        <r>  0.0084  0.0130  0.0021  0.0015  0.0000  0.0000  0.0000  0.0000  0.0000 </r>
        <r>  0.0099  0.0181  0.0018  0.0010  0.0000  0.0000  0.0000  0.0000  0.0000 </r>
        <r>  0.0044  0.0157  0.0001  0.0017  0.0000  0.0000  0.0000  0.0000  0.0000 </r>
        <r>  0.0059  0.0232  0.0002  0.0011  0.0000  0.0000  0.0000  0.0000  0.0000 </r>
       </set>
       <set comment="band 32">
        <r>  0.0059  0.0232  0.0002  0.0011  0.0000  0.0000  0.0000  0.0000  0.0000 </r>
        <r>  0.0044  0.0157  0.0001  0.0017  0.0000  0.0000  0.0000  0.0000  0.0000 </r>
        <r>  0.0099  0.0181  0.0018  0.0010  0.0000  0.0000  0.0000  0.0000  0.0000 </r>
        <r>  0.0084  0.0130  0.0021  0.0015  0.0000  0.0000  0.0000  0.0000  0.0000 </r>
        <r>  0.0094  0.0336  0.0003  0.0021  0.0000  0.0000  0.0000  0.0000  0.0000 </r>
        <r>  0.0051  0.0180  0.0002  0.0033  0.0000  0.0000  0.0000  0.0000  0.0000 </r>
        <r>  0.0113  0.0414  0.0017  0.0013  0.0000  0.0000  0.0000  0.0000  0.0000 </r>
        <r>  0.0070  0.0259  0.0016  0.0025  0.0000  0.0000  0.0000  0.0000  0.0000 </r>
        <r>  0.0028  0.0095  0.0003  0.0004  0.0000  0.0000  0.0000  0.0000  0.0000 </r>
        <r>  0.0013  0.0044  0.0006  0.0009  0.0000  0.0000  0.0000  0.0000  0.0000 </r>
        <r>  0.0027  0.0147  0.0004  0.0005  0.0000  0.0000  0.0000  0.0000  0.0000 </r>
        <r>  0.0012  0.0072  0.0003  0.0011  0.0000  0.0000  0.0000  0.0000  0.0000 </r>
       </set>
       <set comment="band 33">
        <r>  0.0046  0.0053  0.0013  0.0042  0.0000  0.0000  0.0000  0.0000  0.0000 </r>
        <r>  0.0106  0.0269  0.0025  0.0025  0.0000  0.0000  0.0000  0.0000  0.0000 </r>
        <r>  0.0015  0.0265  0.0001  0.0014  0.0000  0.0000  0.0000  0.0000  0.0000 </r>
        <r>  0.0070  0.0495  0.0005  0.0004  0.0000  0.0000  0.0000  0.0000  0.0000 </r>
        <r>  0.0036  0.0049  0.0013  0.0002  0.0000  0.0000  0.0000  0.0000  0.0000 </r>
        <r>  0.0009  0.0027  0.0007  0.0002  0.0000  0.0000  0.0000  0.0000  0.0000 </r>
        <r>  0.0044  0.0028  0.0008  0.0000  0.0000  0.0000  0.0000  0.0000  0.0000 </r>
        <r>  0.0018  0.0005  0.0002  0.0001  0.0000  0.0000  0.0000  0.0000  0.0000 </r>
        <r>  0.0048  0.0057  0.0003  0.0039  0.0000  0.0000  0.0000  0.0000  0.0000 </r>
        <r>  0.0102  0.0287  0.0007  0.0028  0.0000  0.0000  0.0000  0.0000  0.0000 </r>
        <r>  0.0019  0.0266  0.0003  0.0021  0.0000  0.0000  0.0000  0.0000  0.0000 </r>
        <r>  0.0079  0.0482  0.0015  0.0004  0.0000  0.0000  0.0000  0.0000  0.0000 </r>
       </set>
       <set comment="band 34">
        <r>  0.0079  0.0482  0.0015  0.0004  0.0000  0.0000  0.0000  0.0000  0.0000 </r>
        <r>  0.0019  0.0266  0.0003  0.0021  0.0000  0.0000  0.0000  0.0000  0.0000 </r>
        <r>  0.0102  0.0287  0.0007  0.0028  0.0000  0.0000  0.0000  0.0000  0.0000 </r>
        <r>  0.0048  0.0057  0.0003  0.0039  0.0000  0.0000  0.0000  0.0000  0.0000 </r>
        <r>  0.0018  0.0005  0.0002  0.0001  0.0000  0.0000  0.0000  0.0000  0.0000 </r>
        <r>  0.0044  0.0028  0.0008  0.0000  0.0000  0.0000  0.0000  0.0000  0.0000 </r>
        <r>  0.0009  0.0027  0.0007  0.0002  0.0000  0.0000  0.0000  0.0000  0.0000 </r>
        <r>  0.0036  0.0049  0.0013  0.0002  0.0000  0.0000  0.0000  0.0000  0.0000 </r>
        <r>  0.0070  0.0495  0.0005  0.0004  0.0000  0.0000  0.0000  0.0000  0.0000 </r>
        <r>  0.0015  0.0265  0.0001  0.0014  0.0000  0.0000  0.0000  0.0000  0.0000 </r>
        <r>  0.0106  0.0269  0.0025  0.0025  0.0000  0.0000  0.0000  0.0000  0.0000 </r>
        <r>  0.0046  0.0053  0.0013  0.0042  0.0000  0.0000  0.0000  0.0000  0.0000 </r>
       </set>
       <set comment="band 35">
        <r>  0.0034  0.0052  0.0009  0.0021  0.0000  0.0000  0.0000  0.0000  0.0000 </r>
        <r>  0.0036  0.0057  0.0009  0.0021  0.0000  0.0000  0.0000  0.0000  0.0000 </r>
        <r>  0.0011  0.0236  0.0007  0.0005  0.0000  0.0000  0.0000  0.0000  0.0000 </r>
        <r>  0.0012  0.0245  0.0007  0.0005  0.0000  0.0000  0.0000  0.0000  0.0000 </r>
        <r>  0.0083  0.0088  0.0067  0.0036  0.0000  0.0000  0.0000  0.0000  0.0000 </r>
        <r>  0.0084  0.0096  0.0067  0.0036  0.0000  0.0000  0.0000  0.0000  0.0000 </r>
        <r>  0.0015  0.0438  0.0008  0.0004  0.0000  0.0000  0.0000  0.0000  0.0000 </r>
        <r>  0.0017  0.0446  0.0008  0.0004  0.0000  0.0000  0.0000  0.0000  0.0000 </r>
        <r>  0.0094  0.0114  0.0058  0.0032  0.0000  0.0000  0.0000  0.0000  0.0000 </r>
        <r>  0.0094  0.0123  0.0058  0.0032  0.0000  0.0000  0.0000  0.0000  0.0000 </r>
        <r>  0.0034  0.0359  0.0004  0.0003  0.0000  0.0000  0.0000  0.0000  0.0000 </r>
        <r>  0.0036  0.0363  0.0004  0.0003  0.0000  0.0000  0.0000  0.0000  0.0000 </r>
       </set>
       <set comment="band 36">
        <r>  0.0036  0.0363  0.0004  0.0003  0.0000  0.0000  0.0000  0.0000  0.0000 </r>
        <r>  0.0034  0.0359  0.0004  0.0003  0.0000  0.0000  0.0000  0.0000  0.0000 </r>
        <r>  0.0094  0.0123  0.0058  0.0032  0.0000  0.0000  0.0000  0.0000  0.0000 </r>
        <r>  0.0094  0.0114  0.0058  0.0032  0.0000  0.0000  0.0000  0.0000  0.0000 </r>
        <r>  0.0017  0.0446  0.0008  0.0004  0.0000  0.0000  0.0000  0.0000  0.0000 </r>
        <r>  0.0015  0.0438  0.0008  0.0004  0.0000  0.0000  0.0000  0.0000  0.0000 </r>
        <r>  0.0084  0.0096  0.0067  0.0036  0.0000  0.0000  0.0000  0.0000  0.0000 </r>
        <r>  0.0083  0.0088  0.0067  0.0036  0.0000  0.0000  0.0000  0.0000  0.0000 </r>
        <r>  0.0012  0.0245  0.0007  0.0005  0.0000  0.0000  0.0000  0.0000  0.0000 </r>
        <r>  0.0011  0.0236  0.0007  0.0005  0.0000  0.0000  0.0000  0.0000  0.0000 </r>
        <r>  0.0036  0.0057  0.0009  0.0021  0.0000  0.0000  0.0000  0.0000  0.0000 </r>
        <r>  0.0034  0.0052  0.0009  0.0021  0.0000  0.0000  0.0000  0.0000  0.0000 </r>
       </set>
       <set comment="band 37">
        <r>  0.0000  0.0003  0.0025  0.0004  0.0000  0.0000  0.0000  0.0000  0.0000 </r>
        <r>  0.0000  0.0003  0.0033  0.0005  0.0000  0.0000  0.0000  0.0000  0.0000 </r>
        <r>  0.0001  0.0000  0.0005  0.0003  0.0000  0.0000  0.0000  0.0000  0.0000 </r>
        <r>  0.0003  0.0001  0.0006  0.0002  0.0000  0.0000  0.0000  0.0000  0.0000 </r>
        <r>  0.0005  0.0003  0.0635  0.0401  0.0000  0.0000  0.0000  0.0000  0.0000 </r>
        <r>  0.0017  0.0009  0.0942  0.0266  0.0000  0.0000  0.0000  0.0000  0.0000 </r>
        <r>  0.0023  0.0006  0.0073  0.0174  0.0000  0.0000  0.0000  0.0000  0.0000 </r>
        <r>  0.0038  0.0009  0.0363  0.0037  0.0000  0.0000  0.0000  0.0000  0.0000 </r>
        <r>  0.0004  0.0001  0.0173  0.0067  0.0000  0.0000  0.0000  0.0000  0.0000 </r>
        <r>  0.0008  0.0002  0.0187  0.0059  0.0000  0.0000  0.0000  0.0000  0.0000 </r>
        <r>  0.0004  0.0000  0.0030  0.0016  0.0000  0.0000  0.0000  0.0000  0.0000 </r>
        <r>  0.0004  0.0001  0.0062  0.0012  0.0000  0.0000  0.0000  0.0000  0.0000 </r>
       </set>
       <set comment="band 38">
        <r>  0.0000  0.0000  0.0007  0.0021  0.0000  0.0000  0.0000  0.0000  0.0000 </r>
        <r>  0.0001  0.0000  0.0057  0.0004  0.0000  0.0000  0.0000  0.0000  0.0000 </r>
        <r>  0.0002  0.0008  0.0021  0.0028  0.0000  0.0000  0.0000  0.0000  0.0000 </r>
        <r>  0.0006  0.0000  0.0078  0.0004  0.0000  0.0000  0.0000  0.0000  0.0000 </r>
        <r>  0.0042  0.0013  0.0542  0.0010  0.0000  0.0000  0.0000  0.0000  0.0000 </r>
        <r>  0.0019  0.0006  0.0026  0.0275  0.0000  0.0000  0.0000  0.0000  0.0000 </r>
        <r>  0.0025  0.0013  0.1075  0.0217  0.0000  0.0000  0.0000  0.0000  0.0000 </r>
        <r>  0.0002  0.0000  0.0510  0.0486  0.0000  0.0000  0.0000  0.0000  0.0000 </r>
        <r>  0.0002  0.0007  0.0048  0.0038  0.0000  0.0000  0.0000  0.0000  0.0000 </r>
        <r>  0.0004  0.0000  0.0077  0.0021  0.0000  0.0000  0.0000  0.0000  0.0000 </r>
        <r>  0.0003  0.0001  0.0029  0.0031  0.0000  0.0000  0.0000  0.0000  0.0000 </r>
        <r>  0.0003  0.0004  0.0095  0.0015  0.0000  0.0000  0.0000  0.0000  0.0000 </r>
       </set>
       <set comment="band 39">
        <r>  0.0029  0.0003  0.0137  0.0106  0.0000  0.0000  0.0000  0.0000  0.0000 </r>
        <r>  0.0036  0.0004  0.0185  0.0071  0.0000  0.0000  0.0000  0.0000  0.0000 </r>
        <r>  0.0004  0.0005  0.0710  0.0335  0.0000  0.0000  0.0000  0.0000  0.0000 </r>
        <r>  0.0006  0.0013  0.0766  0.0295  0.0000  0.0000  0.0000  0.0000  0.0000 </r>
        <r>  0.0003  0.0006  0.0023  0.0071  0.0000  0.0000  0.0000  0.0000  0.0000 </r>
        <r>  0.0008  0.0006  0.0126  0.0012  0.0000  0.0000  0.0000  0.0000  0.0000 </r>
        <r>  0.0001  0.0001  0.0084  0.0117  0.0000  0.0000  0.0000  0.0000  0.0000 </r>
        <r>  0.0004  0.0002  0.0185  0.0060  0.0000  0.0000  0.0000  0.0000  0.0000 </r>
        <r>  0.0001  0.0003  0.0060  0.0105  0.0000  0.0000  0.0000  0.0000  0.0000 </r>
        <r>  0.0005  0.0014  0.0209  0.0020  0.0000  0.0000  0.0000  0.0000  0.0000 </r>
        <r>  0.0002  0.0000  0.0015  0.0089  0.0000  0.0000  0.0000  0.0000  0.0000 </r>
        <r>  0.0013  0.0002  0.0154  0.0010  0.0000  0.0000  0.0000  0.0000  0.0000 </r>
       </set>
       <set comment="band 40">
        <r>  0.0002  0.0002  0.0673  0.0368  0.0000  0.0000  0.0000  0.0000  0.0000 </r>
        <r>  0.0010  0.0006  0.0801  0.0285  0.0000  0.0000  0.0000  0.0000  0.0000 </r>
        <r>  0.0028  0.0002  0.0118  0.0134  0.0000  0.0000  0.0000  0.0000  0.0000 </r>
        <r>  0.0030  0.0011  0.0240  0.0060  0.0000  0.0000  0.0000  0.0000  0.0000 </r>
        <r>  0.0001  0.0002  0.0006  0.0007  0.0000  0.0000  0.0000  0.0000  0.0000 </r>
        <r>  0.0002  0.0007  0.0022  0.0005  0.0000  0.0000  0.0000  0.0000  0.0000 </r>
        <r>  0.0000  0.0000  0.0001  0.0010  0.0000  0.0000  0.0000  0.0000  0.0000 </r>
        <r>  0.0006  0.0002  0.0009  0.0001  0.0000  0.0000  0.0000  0.0000  0.0000 </r>
        <r>  0.0012  0.0000  0.0052  0.0066  0.0000  0.0000  0.0000  0.0000  0.0000 </r>
        <r>  0.0014  0.0005  0.0115  0.0023  0.0000  0.0000  0.0000  0.0000  0.0000 </r>
        <r>  0.0001  0.0001  0.0294  0.0166  0.0000  0.0000  0.0000  0.0000  0.0000 </r>
        <r>  0.0005  0.0004  0.0370  0.0119  0.0000  0.0000  0.0000  0.0000  0.0000 </r>
       </set>
      </set>
     </set>
    </set>
   </array>
  </projected>
 </calculation>
 <structure name="finalpos" >
  <crystal>
   <varray name="basis" >
    <v>       3.34288600       0.00000000       0.00000000 </v>
    <v>       0.00000000      32.60240900       0.00000000 </v>
    <v>       0.00000000       0.00000000       4.37483100 </v>
   </varray>
   <i name="volume">    476.79592902 </i>
   <varray name="rec_basis" >
    <v>       0.29914272       0.00000000       0.00000000 </v>
    <v>       0.00000000       0.03067258       0.00000000 </v>
    <v>       0.00000000       0.00000000       0.22858026 </v>
   </varray>
  </crystal>
  <varray name="positions" >
   <v>       0.00000000       0.30672600       0.91892400 </v>
   <v>       0.50000000       0.30672600       0.58107600 </v>
   <v>       0.00000000       0.37246700       0.08107600 </v>
   <v>       0.50000000       0.37246700       0.41892400 </v>
   <v>       0.50000000       0.46712900       0.91892400 </v>
   <v>       0.00000000       0.46712900       0.58107600 </v>
   <v>       0.50000000       0.53287100       0.08107600 </v>
   <v>       0.00000000       0.53287100       0.41892400 </v>
   <v>       0.00000000       0.62753300       0.91892400 </v>
   <v>       0.50000000       0.62753300       0.58107600 </v>
   <v>       0.00000000       0.69327400       0.08107600 </v>
   <v>       0.50000000       0.69327400       0.41892400 </v>
  </varray>
 </structure>
</modeling>
