 vasp.5.4.4.18Apr17-6-g9f103f2a35 (build Jun 20 2017 18:00:50) complex          
  
 executed on             LinuxIFC date 2018.03.16  15:58:54
 running on   32 total cores
 distrk:  each k-point on   32 cores,    1 groups
 distr:  one band on NCORES_PER_BAND=   8 cores,    4 groups


--------------------------------------------------------------------------------------------------------


 INCAR:
 POTCAR:    PAW_PBE P 06Sep2000                   
 POTCAR:    PAW_PBE P 06Sep2000                   
   VRHFIN =P : s2p3                                                             
   LEXCH  = PE                                                                  
   EATOM  =   176.0430 eV,   12.9388 Ry                                         
                                                                                
   TITEL  = PAW_PBE P 06Sep2000                                                 
   LULTRA =        F    use ultrasoft PP ?                                      
   IUNSCR =        1    unscreen: 0-lin 1-nonlin 2-no                           
   RPACOR =    1.500    partial core radius                                     
   POMASS =   30.974; ZVAL   =    5.000    mass and valenz                      
   RCORE  =    1.900    outmost cutoff radius                                   
   RWIGS  =    2.330; RWIGS  =    1.233    wigner-seitz radius (au A)           
   ENMAX  =  255.040; ENMIN  =  191.280 eV                                      
   ICORE  =        2    local potential                                         
   LCOR   =        T    correct aug charges                                     
   LPAW   =        T    paw PP                                                  
   EAUG   =  342.924                                                            
   DEXC   =    0.000                                                            
   RMAX   =    1.935    core radius for proj-oper                               
   RAUG   =    1.300    factor for augmentation sphere                          
   RDEP   =    1.931    radius for radial grids                                 
   RDEPT  =    1.794    core radius for aug-charge                              
                                                                                
   Atomic configuration                                                         
    6 entries                                                                   
     n  l   j            E        occ.                                          
     1  0  0.50     -2084.0982   2.0000                                         
     2  0  0.50      -173.9859   2.0000                                         
     2  1  1.50      -124.4865   6.0000                                         
     3  0  0.50       -13.9692   2.0000                                         
     3  1  0.50        -5.5067   3.0000                                         
     3  2  1.50        -5.4423   0.0000                                         
   Description                                                                  
     l       E           TYP  RCUT    TYP  RCUT                                 
     0    -13.9691527     23  1.900                                             
     0    -11.7794650     23  1.900                                             
     1     -5.5066937     23  1.900                                             
     1     -0.2556953     23  1.900                                             
     2     -5.4423304     23  1.900                                             
  local pseudopotential read in
  partial core-charges read in
  partial kinetic energy density read in
  atomic valenz-charges read in
  non local Contribution for L=           0  read in
    real space projection operators read in
  non local Contribution for L=           0  read in
    real space projection operators read in
  non local Contribution for L=           1  read in
    real space projection operators read in
  non local Contribution for L=           1  read in
    real space projection operators read in
    PAW grid and wavefunctions read in
 
   number of l-projection  operators is LMAX  =           4
   number of lm-projection operators is LMMAX =           8
 
  PAW_PBE P 06Sep2000                   :
 energy of atom  1       EATOM= -176.0430
 kinetic energy error for atom=    0.0008 (will be added to EATOM!!)
 
 
 POSCAR: P12                                     
  positions in direct lattice
  No initial velocities read in
 exchange correlation table for  LEXCH =        8
   RHO(1)=    0.500       N(1)  =     2000
   RHO(2)=  100.500       N(2)  =     4000
 


--------------------------------------------------------------------------------------------------------


 ion  position               nearest neighbor table
   1  0.000  0.307  0.919-   2 2.23   2 2.23   3 2.26
   2  0.500  0.307  0.581-   1 2.23   1 2.23   4 2.26
   3  0.000  0.372  0.081-   4 2.23   4 2.23   1 2.26
   4  0.500  0.372  0.419-   3 2.23   3 2.23   2 2.26
   5  0.500  0.467  0.919-   6 2.23   6 2.23   7 2.26
   6  0.000  0.467  0.581-   5 2.23   5 2.23   8 2.26
   7  0.500  0.533  0.081-   8 2.23   8 2.23   5 2.26
   8  0.000  0.533  0.419-   7 2.23   7 2.23   6 2.26
   9  0.000  0.628  0.919-  10 2.23  10 2.23  11 2.26
  10  0.500  0.628  0.581-   9 2.23   9 2.23  12 2.26
  11  0.000  0.693  0.081-  12 2.23  12 2.23   9 2.26
  12  0.500  0.693  0.419-  11 2.23  11 2.23  10 2.26
 
  LATTYP: Found a simple orthorhombic cell.
 ALAT       =     3.3428860000
 B/A-ratio  =     1.3086988309
 C/A-ratio  =     9.7527732026
  
  Lattice vectors:
  
 A1 = (  -3.3428860000,   0.0000000000,   0.0000000000)
 A2 = (   0.0000000000,   0.0000000000,  -4.3748310000)
 A3 = (   0.0000000000, -32.6024090000,   0.0000000000)


Analysis of symmetry for initial positions (statically):
=====================================================================
 Subroutine PRICEL returns:
 Original cell was already a primitive cell.
 

 Routine SETGRP: Setting up the symmetry group for a 
 simple orthorhombic supercell.


 Subroutine GETGRP returns: Found  8 space group operations
 (whereof  4 operations were pure point group operations)
 out of a pool of  8 trial point group operations.


The static configuration has the point symmetry C_2h.
 The point group associated with its full space group is D_2h.


Analysis of symmetry for dynamics (positions and initial velocities):
=====================================================================
 Subroutine PRICEL returns:
 Original cell was already a primitive cell.
 

 Routine SETGRP: Setting up the symmetry group for a 
 simple orthorhombic supercell.


 Subroutine GETGRP returns: Found  8 space group operations
 (whereof  4 operations were pure point group operations)
 out of a pool of  8 trial point group operations.


The dynamic configuration has the point symmetry C_2h.
 The point group associated with its full space group is D_2h.


 Subroutine INISYM returns: Found  8 space group operations
 (whereof  4 operations are pure point group operations),
 and found     1 'primitive' translations

 
 
 KPOINTS: Automatic mesh                          

Automatic generation of k-mesh.
Space group operators:
 irot       det(A)        alpha          n_x          n_y          n_z        tau_x        tau_y        tau_z
    1     1.000000     0.000001     1.000000     0.000000     0.000000     0.000000     0.000000     0.000000
    2    -1.000000     0.000001     1.000000     0.000000     0.000000     0.000000     0.000000     0.000000
    3     1.000000   179.999999     1.000000     0.000000     0.000000     0.000000     0.000000     0.000000
    4    -1.000000   179.999999     1.000000     0.000000     0.000000     0.000000     0.000000     0.000000
    5     1.000000   179.999999     0.000000     1.000000     0.000000    -0.500000     0.000000    -0.500000
    6    -1.000000   179.999999     0.000000     1.000000     0.000000    -0.500000     0.000000    -0.500000
    7     1.000000   179.999999     0.000000     0.000000     1.000000    -0.500000     0.000000    -0.500000
    8    -1.000000   179.999999     0.000000     0.000000     1.000000    -0.500000     0.000000    -0.500000
 
 Subroutine IBZKPT returns following result:
 ===========================================
 
 Found     12 irreducible k-points:
 
 Following reciprocal coordinates:
            Coordinates               Weight
  0.000000  0.000000  0.000000      1.000000
  0.166667  0.000000  0.000000      2.000000
  0.333333  0.000000  0.000000      2.000000
  0.500000  0.000000  0.000000      1.000000
  0.000000  0.000000  0.250000      2.000000
  0.166667  0.000000  0.250000      4.000000
  0.333333  0.000000  0.250000      4.000000
  0.500000  0.000000  0.250000      2.000000
  0.000000  0.000000  0.500000      1.000000
  0.166667  0.000000  0.500000      2.000000
  0.333333  0.000000  0.500000      2.000000
  0.500000  0.000000  0.500000      1.000000
 
 Following cartesian coordinates:
            Coordinates               Weight
  0.000000  0.000000  0.000000      1.000000
  0.049857  0.000000  0.000000      2.000000
  0.099714  0.000000  0.000000      2.000000
  0.149571  0.000000  0.000000      1.000000
  0.000000  0.000000  0.057145      2.000000
  0.049857  0.000000  0.057145      4.000000
  0.099714  0.000000  0.057145      4.000000
  0.149571  0.000000  0.057145      2.000000
  0.000000  0.000000  0.114290      1.000000
  0.049857  0.000000  0.114290      2.000000
  0.099714  0.000000  0.114290      2.000000
  0.149571  0.000000  0.114290      1.000000
 


--------------------------------------------------------------------------------------------------------




 Dimension of arrays:
   k-points           NKPTS =     12   k-points in BZ     NKDIM =     12   number of bands    NBANDS=     40
   number of dos      NEDOS =   2000   number of ions     NIONS =     12
   non local maximal  LDIM  =      4   non local SUM 2l+1 LMDIM =      8
   total plane-waves  NPLWV = 107520
   max r-space proj   IRMAX =      1   max aug-charges    IRDMAX=   7061
   dimension x,y,z NGX =    20 NGY =  192 NGZ =   28
   dimension x,y,z NGXF=    40 NGYF=  384 NGZF=   56
   support grid    NGXF=    40 NGYF=  384 NGZF=   56
   ions per type =              12
   NGX,Y,Z   is equivalent  to a cutoff of   9.95,  9.79, 10.64 a.u.
   NGXF,Y,Z  is equivalent  to a cutoff of  19.89, 19.58, 21.28 a.u.

 SYSTEM =  Generic Input                           
 POSCAR =  P12                                     

 Startparameter for this run:
   NWRITE =      2    write-flag & timer
   PREC   = normal    normal or accurate (medium, high low for compatibility)
   ISTART =      0    job   : 0-new  1-cont  2-samecut
   ICHARG =      2    charge: 1-file 2-atom 10-const
   ISPIN  =      1    spin polarized calculation?
   LNONCOLLINEAR =      F non collinear calculations
   LSORBIT =      F    spin-orbit coupling
   INIWAV =      1    electr: 0-lowe 1-rand  2-diag
   LASPH  =      T    aspherical Exc in radial PAW
   METAGGA=      F    non-selfconsistent MetaGGA calc.

 Electronic Relaxation 1
   ENCUT  =  550.0 eV  40.42 Ry    6.36 a.u.   6.39 62.34  8.37*2*pi/ulx,y,z
   ENINI  =  550.0     initial cutoff
   ENAUG  =  342.9 eV  augmentation charge cutoff
   NELM   =    200;   NELMIN=  2; NELMDL=  0     # of ELM steps 
   EDIFF  = 0.1E-04   stopping-criterion for ELM
   LREAL  =      F    real-space projection
   NLSPLINE    = F    spline interpolate recip. space projectors
   LCOMPAT=      F    compatible to vasp.4.4
   GGA_COMPAT  = T    GGA compatible to vasp.4.4-vasp.4.6
   LMAXPAW     = -100 max onsite density
   LMAXMIX     =    2 max onsite mixed and CHGCAR
   VOSKOWN=      0    Vosko Wilk Nusair interpolation
   ROPT   =    0.00000
 Ionic relaxation
   EDIFFG = -.2E-01   stopping-criterion for IOM
   NSW    =      0    number of steps for IOM
   NBLOCK =      1;   KBLOCK =      1    inner block; outer block 
   IBRION =     -1    ionic relax: 0-MD 1-quasi-New 2-CG
   NFREE  =      1    steps in history (QN), initial steepest desc. (CG)
   ISIF   =      3    stress and relaxation
   IWAVPR =     11    prediction:  0-non 1-charg 2-wave 3-comb
   ISYM   =      2    0-nonsym 1-usesym 2-fastsym
   LCORR  =      T    Harris-Foulkes like correction to forces

   POTIM  = 0.5000    time-step for ionic-motion
   TEIN   =    0.0    initial temperature
   TEBEG  =    0.0;   TEEND  =   0.0 temperature during run
   SMASS  =  -3.00    Nose mass-parameter (am)
   estimated Nose-frequenzy (Omega)   =  0.10E-29 period in steps =****** mass=  -0.255E-27a.u.
   SCALEE = 1.0000    scale energy and forces
   NPACO  =    256;   APACO  = 16.0  distance and # of slots for P.C.
   PSTRESS=    0.0 pullay stress

  Mass of Ions in am
   POMASS =  30.97
  Ionic Valenz
   ZVAL   =   5.00
  Atomic Wigner-Seitz radii
   RWIGS  =  -1.00
  virtual crystal weights 
   VCA    =   1.00
   NELECT =      60.0000    total number of electrons
   NUPDOWN=      -1.0000    fix difference up-down

 DOS related values:
   EMIN   =  10.00;   EMAX   =-10.00  energy-range for DOS
   EFERMI =   0.00
   ISMEAR =     0;   SIGMA  =   0.01  broadening in eV -4-tet -1-fermi 0-gaus

 Electronic relaxation 2 (details)
   IALGO  =     38    algorithm
   LDIAG  =      T    sub-space diagonalisation (order eigenvalues)
   LSUBROT=      F    optimize rotation matrix (better conditioning)
   TURBO    =      0    0=normal 1=particle mesh
   IRESTART =      0    0=no restart 2=restart with 2 vectors
   NREBOOT  =      0    no. of reboots
   NMIN     =      0    reboot dimension
   EREF     =   0.00    reference energy to select bands
   IMIX   =      4    mixing-type and parameters
     AMIX     =   0.40;   BMIX     =  1.00
     AMIX_MAG =   1.60;   BMIX_MAG =  1.00
     AMIN     =   0.10
     WC   =   100.;   INIMIX=   1;  MIXPRE=   1;  MAXMIX= -45

 Intra band minimization:
   WEIMIN = 0.0000     energy-eigenvalue tresh-hold
   EBREAK =  0.63E-07  absolut break condition
   DEPER  =   0.30     relativ break condition  

   TIME   =   0.40     timestep for ELM

  volume/ion in A,a.u.               =      39.73       268.13
  Fermi-wavevector in a.u.,A,eV,Ry     =   0.820379  1.550291  9.157011  0.673021
  Thomas-Fermi vector in A             =   1.931350
 
 Write flags
   LWAVE        =      T    write WAVECAR
   LDOWNSAMPLE  =      F    k-point downsampling of WAVECAR
   LCHARG       =      T    write CHGCAR
   LVTOT        =      F    write LOCPOT, total local potential
   LVHAR        =      T    write LOCPOT, Hartree potential only
   LELF         =      F    write electronic localiz. function (ELF)
   LORBIT       =     11    0 simple, 1 ext, 2 COOP (PROOUT), +10 PAW based schemes


 Dipole corrections
   LMONO  =      F    monopole corrections only (constant potential shift)
   LDIPOL =      F    correct potential (dipole corrections)
   IDIPOL =      0    1-x, 2-y, 3-z, 4-all directions 
   EPSILON=  1.0000000 bulk dielectric constant

 Core level calculations are selected ICORELEVEL =  1
 Exchange correlation treatment:
   GGA     =    PE    GGA type
   LEXCH   =     8    internal setting for exchange type
   VOSKOWN=      0    Vosko Wilk Nusair interpolation
   LHFCALC =     F    Hartree Fock is set to
   LHFONE  =     F    Hartree Fock one center treatment
   AEXX    =    0.0000 exact exchange contribution

 Linear response parameters
   LEPSILON=     F    determine dielectric tensor
   LRPA    =     F    only Hartree local field effects (RPA)
   LNABLA  =     F    use nabla operator in PAW spheres
   LVEL    =     F    velocity operator in full k-point grid
   LINTERFAST=   F  fast interpolation
   KINTER  =     0    interpolate to denser k-point grid
   CSHIFT  =0.1000    complex shift for real part using Kramers Kronig
   OMEGAMAX=  -1.0    maximum frequency
   DEG_THRESHOLD= 0.2000000E-02 threshold for treating states as degnerate
   RTIME   =   -0.100 relaxation time in fs
  (WPLASMAI=    0.000 imaginary part of plasma frequency in eV, 0.658/RTIME)
   DFIELD  = 0.0000000 0.0000000 0.0000000 field for delta impulse in time
 
 Orbital magnetization related:
   ORBITALMAG=     F  switch on orbital magnetization
   LCHIMAG   =     F  perturbation theory with respect to B field
   DQ        =  0.001000  dq finite difference perturbation B field
   LLRAUG    =     F  two centre corrections for induced B field



--------------------------------------------------------------------------------------------------------


 Static calculation
 charge density and potential will be updated during run
 non-spin polarized calculation
 Variant of blocked Davidson
 Davidson routine will perform the subspace rotation
 perform sub-space diagonalisation
    after iterative eigenvector-optimisation
 modified Broyden-mixing scheme, WC =      100.0
 initial mixing is a Kerker type mixing with AMIX =  0.4000 and BMIX =      1.0000
 Hartree-type preconditioning will be used
 using additional bands           10
 reciprocal scheme for non local part
 use partial core corrections
 calculate Harris-corrections to forces 
   (improved forces if not selfconsistent)
 use gradient corrections 
 use of overlap-Matrix (Vanderbilt PP)
 Gauss-broadening in eV      SIGMA  =   0.01


--------------------------------------------------------------------------------------------------------


  energy-cutoff  :      550.00
  volume of cell :      476.80
      direct lattice vectors                 reciprocal lattice vectors
     3.342886000  0.000000000  0.000000000     0.299142717  0.000000000  0.000000000
     0.000000000 32.602409000  0.000000000     0.000000000  0.030672580  0.000000000
     0.000000000  0.000000000  4.374831000     0.000000000  0.000000000  0.228580258

  length of vectors
     3.342886000 32.602409000  4.374831000     0.299142717  0.030672580  0.228580258


 
 k-points in units of 2pi/SCALE and weight: Automatic mesh                          
   0.00000000  0.00000000  0.00000000       0.042
   0.04985712  0.00000000  0.00000000       0.083
   0.09971424  0.00000000  0.00000000       0.083
   0.14957136  0.00000000  0.00000000       0.042
   0.00000000  0.00000000  0.05714506       0.083
   0.04985712  0.00000000  0.05714506       0.167
   0.09971424  0.00000000  0.05714506       0.167
   0.14957136  0.00000000  0.05714506       0.083
   0.00000000  0.00000000  0.11429013       0.042
   0.04985712  0.00000000  0.11429013       0.083
   0.09971424  0.00000000  0.11429013       0.083
   0.14957136  0.00000000  0.11429013       0.042
 
 k-points in reciprocal lattice and weights: Automatic mesh                          
   0.00000000  0.00000000  0.00000000       0.042
   0.16666667  0.00000000  0.00000000       0.083
   0.33333333  0.00000000  0.00000000       0.083
   0.50000000  0.00000000  0.00000000       0.042
   0.00000000  0.00000000  0.25000000       0.083
   0.16666667  0.00000000  0.25000000       0.167
   0.33333333  0.00000000  0.25000000       0.167
   0.50000000  0.00000000  0.25000000       0.083
   0.00000000  0.00000000  0.50000000       0.042
   0.16666667  0.00000000  0.50000000       0.083
   0.33333333  0.00000000  0.50000000       0.083
   0.50000000  0.00000000  0.50000000       0.042
 
 position of ions in fractional coordinates (direct lattice) 
   0.00000000  0.30672600  0.91892400
   0.50000000  0.30672600  0.58107600
   0.00000000  0.37246700  0.08107600
   0.50000000  0.37246700  0.41892400
   0.50000000  0.46712900  0.91892400
   0.00000000  0.46712900  0.58107600
   0.50000000  0.53287100  0.08107600
   0.00000000  0.53287100  0.41892400
   0.00000000  0.62753300  0.91892400
   0.50000000  0.62753300  0.58107600
   0.00000000  0.69327400  0.08107600
   0.50000000  0.69327400  0.41892400
 
 position of ions in cartesian coordinates  (Angst):
   0.00000000 10.00000650  4.02013720
   1.67144300 10.00000650  2.54210930
   0.00000000 12.14332147  0.35469380
   1.67144300 12.14332147  1.83272170
   1.67144300 15.22953071  4.02013720
   0.00000000 15.22953071  2.54210930
   1.67144300 17.37287829  0.35469380
   0.00000000 17.37287829  1.83272170
   0.00000000 20.45908753  4.02013720
   1.67144300 20.45908753  2.54210930
   0.00000000 22.60240250  0.35469380
   1.67144300 22.60240250  1.83272170
 


--------------------------------------------------------------------------------------------------------


 k-point  1 :   0.0000 0.0000 0.0000  plane waves:   14041
 k-point  2 :   0.1667 0.0000 0.0000  plane waves:   14029
 k-point  3 :   0.3333 0.0000 0.0000  plane waves:   13967
 k-point  4 :   0.5000 0.0000 0.0000  plane waves:   13856
 k-point  5 :   0.0000 0.0000 0.2500  plane waves:   14017
 k-point  6 :   0.1667 0.0000 0.2500  plane waves:   13996
 k-point  7 :   0.3333 0.0000 0.2500  plane waves:   13937
 k-point  8 :   0.5000 0.0000 0.2500  plane waves:   13930
 k-point  9 :   0.0000 0.0000 0.5000  plane waves:   13960
 k-point 10 :   0.1667 0.0000 0.5000  plane waves:   13908
 k-point 11 :   0.3333 0.0000 0.5000  plane waves:   13972
 k-point 12 :   0.5000 0.0000 0.5000  plane waves:   13948

 maximum and minimum number of plane-waves per node :      1782     1706

 maximum number of plane-waves:     14041
 maximum index in each direction: 
   IXMAX=    6   IYMAX=   62   IZMAX=    8
   IXMIN=   -6   IYMIN=  -62   IZMIN=   -8


 parallel 3D FFT for wavefunctions:
    minimum data exchange during FFTs selected (reduces bandwidth)
 parallel 3D FFT for charge:
    minimum data exchange during FFTs selected (reduces bandwidth)


 total amount of memory used by VASP MPI-rank0    39680. kBytes
=======================================================================

   base      :      30000. kBytes
   nonl-proj :       1678. kBytes
   fftplans  :       1843. kBytes
   grid      :       2767. kBytes
   one-center:          6. kBytes
   wavefun   :       3386. kBytes
 
     INWAV:  cpu time    0.0000: real time    0.0000
 Broyden mixing: mesh for mixing (old mesh)
   NGX = 13   NGY =125   NGZ = 17
  (NGX  = 40   NGY  =384   NGZ  = 56)
  gives a total of  27625 points

 initial charge density was supplied:
 charge density of overlapping atoms calculated
 number of electron      60.0000000 magnetization 
 keeping initial charge density in first step


--------------------------------------------------------------------------------------------------------


 Maximum index for augmentation-charges          664 (set IRDMAX)


--------------------------------------------------------------------------------------------------------


 First call to EWALD:  gamma=   0.227
 Maximum number of real-space cells 6x 1x 5
 Maximum number of reciprocal cells 1x10x 2

    FEWALD:  cpu time    0.0017: real time    0.0017


--------------------------------------- Iteration      1(   1)  ---------------------------------------


    POTLOK:  cpu time    0.0410: real time    0.0429
    SETDIJ:  cpu time    0.0642: real time    0.0642
     EDDAV:  cpu time    0.6600: real time    0.6614
       DOS:  cpu time    0.0006: real time    0.0006
    --------------------------------------------
      LOOP:  cpu time    0.7659: real time    0.7691

 eigenvalue-minimisations  :   960
 total energy-change (2. order) : 0.3873757E+03  (-0.2284968E+04)
 number of electron      60.0000000 magnetization 
 augmentation part       60.0000000 magnetization 

 Free energy of the ion-electron system (eV)
  ---------------------------------------------------
  alpha Z        PSCENC =        30.28014394
  Ewald energy   TEWEN  =     14973.24208224
  -Hartree energ DENC   =    -16928.93300519
  -exchange      EXHF   =         0.00000000
  -V(xc)+E(xc)   XCENC  =        40.33410131
  PAW double counting   =      1677.12035881    -1579.18296132
  entropy T*S    EENTRO =        -0.00033021
  eigenvalues    EBANDS =        62.00883977
  atomic energy  EATOM  =      2112.50643729
  Solvation  Ediel_sol  =         0.00000000
  ---------------------------------------------------
  free energy    TOTEN  =       387.37566663 eV

  energy without entropy =      387.37599684  energy(sigma->0) =      387.37583174


--------------------------------------------------------------------------------------------------------




--------------------------------------- Iteration      1(   2)  ---------------------------------------


     EDDAV:  cpu time    0.8326: real time    0.8346
       DOS:  cpu time    0.0005: real time    0.0005
    --------------------------------------------
      LOOP:  cpu time    0.8332: real time    0.8352

 eigenvalue-minimisations  :  1368
 total energy-change (2. order) :-0.4072937E+03  (-0.3956800E+03)
 number of electron      60.0000000 magnetization 
 augmentation part       60.0000000 magnetization 

 Free energy of the ion-electron system (eV)
  ---------------------------------------------------
  alpha Z        PSCENC =        30.28014394
  Ewald energy   TEWEN  =     14973.24208224
  -Hartree energ DENC   =    -16928.93300519
  -exchange      EXHF   =         0.00000000
  -V(xc)+E(xc)   XCENC  =        40.33410131
  PAW double counting   =      1677.12035881    -1579.18296132
  entropy T*S    EENTRO =        -0.00016740
  eigenvalues    EBANDS =      -345.28502374
  atomic energy  EATOM  =      2112.50643729
  Solvation  Ediel_sol  =         0.00000000
  ---------------------------------------------------
  free energy    TOTEN  =       -19.91803406 eV

  energy without entropy =      -19.91786666  energy(sigma->0) =      -19.91795036


--------------------------------------------------------------------------------------------------------




--------------------------------------- Iteration      1(   3)  ---------------------------------------


     EDDAV:  cpu time    0.7389: real time    0.7411
       DOS:  cpu time    0.0004: real time    0.0004
    --------------------------------------------
      LOOP:  cpu time    0.7393: real time    0.7415

 eigenvalue-minimisations  :  1136
 total energy-change (2. order) :-0.4328383E+02  (-0.4260522E+02)
 number of electron      60.0000000 magnetization 
 augmentation part       60.0000000 magnetization 

 Free energy of the ion-electron system (eV)
  ---------------------------------------------------
  alpha Z        PSCENC =        30.28014394
  Ewald energy   TEWEN  =     14973.24208224
  -Hartree energ DENC   =    -16928.93300519
  -exchange      EXHF   =         0.00000000
  -V(xc)+E(xc)   XCENC  =        40.33410131
  PAW double counting   =      1677.12035881    -1579.18296132
  entropy T*S    EENTRO =        -0.00000000
  eigenvalues    EBANDS =      -388.56901792
  atomic energy  EATOM  =      2112.50643729
  Solvation  Ediel_sol  =         0.00000000
  ---------------------------------------------------
  free energy    TOTEN  =       -63.20186085 eV

  energy without entropy =      -63.20186085  energy(sigma->0) =      -63.20186085


--------------------------------------------------------------------------------------------------------




--------------------------------------- Iteration      1(   4)  ---------------------------------------


     EDDAV:  cpu time    0.8438: real time    0.8447
       DOS:  cpu time    0.0004: real time    0.0004
    --------------------------------------------
      LOOP:  cpu time    0.8442: real time    0.8451

 eigenvalue-minimisations  :  1392
 total energy-change (2. order) :-0.1562329E+01  (-0.1553431E+01)
 number of electron      60.0000000 magnetization 
 augmentation part       60.0000000 magnetization 

 Free energy of the ion-electron system (eV)
  ---------------------------------------------------
  alpha Z        PSCENC =        30.28014394
  Ewald energy   TEWEN  =     14973.24208224
  -Hartree energ DENC   =    -16928.93300519
  -exchange      EXHF   =         0.00000000
  -V(xc)+E(xc)   XCENC  =        40.33410131
  PAW double counting   =      1677.12035881    -1579.18296132
  entropy T*S    EENTRO =        -0.00000000
  eigenvalues    EBANDS =      -390.13134687
  atomic energy  EATOM  =      2112.50643729
  Solvation  Ediel_sol  =         0.00000000
  ---------------------------------------------------
  free energy    TOTEN  =       -64.76418980 eV

  energy without entropy =      -64.76418980  energy(sigma->0) =      -64.76418980


--------------------------------------------------------------------------------------------------------




--------------------------------------- Iteration      1(   5)  ---------------------------------------


     EDDAV:  cpu time    0.9044: real time    0.9054
       DOS:  cpu time    0.0004: real time    0.0004
    CHARGE:  cpu time    0.0442: real time    0.0442
    MIXING:  cpu time    0.0008: real time    0.0008
    --------------------------------------------
      LOOP:  cpu time    0.9499: real time    0.9508

 eigenvalue-minimisations  :  1536
 total energy-change (2. order) :-0.4924480E-01  (-0.4918965E-01)
 number of electron      60.0000001 magnetization 
 augmentation part       -6.5203416 magnetization 

 Broyden mixing:
  rms(total) = 0.17528E+01    rms(broyden)= 0.17528E+01
  rms(prec ) = 0.17583E+01
  weight for this iteration     100.00

 Free energy of the ion-electron system (eV)
  ---------------------------------------------------
  alpha Z        PSCENC =        30.28014394
  Ewald energy   TEWEN  =     14973.24208224
  -Hartree energ DENC   =    -16928.93300519
  -exchange      EXHF   =         0.00000000
  -V(xc)+E(xc)   XCENC  =        40.33410131
  PAW double counting   =      1677.12035881    -1579.18296132
  entropy T*S    EENTRO =        -0.00000000
  eigenvalues    EBANDS =      -390.18059168
  atomic energy  EATOM  =      2112.50643729
  Solvation  Ediel_sol  =         0.00000000
  ---------------------------------------------------
  free energy    TOTEN  =       -64.81343460 eV

  energy without entropy =      -64.81343460  energy(sigma->0) =      -64.81343460


--------------------------------------------------------------------------------------------------------




--------------------------------------- Iteration      1(   6)  ---------------------------------------


    POTLOK:  cpu time    0.0257: real time    0.0259
    SETDIJ:  cpu time    0.0647: real time    0.0647
     EDDAV:  cpu time    0.7681: real time    0.7688
       DOS:  cpu time    0.0004: real time    0.0004
    CHARGE:  cpu time    0.0449: real time    0.0449
    MIXING:  cpu time    0.0009: real time    0.0009
    --------------------------------------------
      LOOP:  cpu time    0.9048: real time    0.9057

 eigenvalue-minimisations  :  1232
 total energy-change (2. order) : 0.3250338E+00  (-0.1978356E-01)
 number of electron      60.0000001 magnetization 
 augmentation part       -6.4821494 magnetization 

 Broyden mixing:
  rms(total) = 0.10392E+01    rms(broyden)= 0.10392E+01
  rms(prec ) = 0.10424E+01
  weight for this iteration     100.00

 eigenvalues of (default mixing * dielectric matrix)
  average eigenvalue GAMMA=   2.4481
  2.4481

 Free energy of the ion-electron system (eV)
  ---------------------------------------------------
  alpha Z        PSCENC =        30.28014394
  Ewald energy   TEWEN  =     14973.24208224
  -Hartree energ DENC   =    -16941.14560376
  -exchange      EXHF   =         0.00000000
  -V(xc)+E(xc)   XCENC  =        41.37734777
  PAW double counting   =      3130.30170864    -3032.82685037
  entropy T*S    EENTRO =        -0.00000000
  eigenvalues    EBANDS =      -378.22366650
  atomic energy  EATOM  =      2112.50643729
  Solvation  Ediel_sol  =         0.00000000
  ---------------------------------------------------
  free energy    TOTEN  =       -64.48840076 eV

  energy without entropy =      -64.48840076  energy(sigma->0) =      -64.48840076


--------------------------------------------------------------------------------------------------------




--------------------------------------- Iteration      1(   7)  ---------------------------------------


    POTLOK:  cpu time    0.0241: real time    0.0256
    SETDIJ:  cpu time    0.0647: real time    0.0647
     EDDAV:  cpu time    0.7607: real time    0.7615
       DOS:  cpu time    0.0005: real time    0.0005
    CHARGE:  cpu time    0.0437: real time    0.0437
    MIXING:  cpu time    0.0009: real time    0.0009
    --------------------------------------------
      LOOP:  cpu time    0.8946: real time    0.8968

 eigenvalue-minimisations  :  1216
 total energy-change (2. order) : 0.1490792E+00  (-0.3609063E-01)
 number of electron      60.0000001 magnetization 
 augmentation part       -6.4357203 magnetization 

 Broyden mixing:
  rms(total) = 0.43710E-01    rms(broyden)= 0.43710E-01
  rms(prec ) = 0.45032E-01
  weight for this iteration     100.00

 eigenvalues of (default mixing * dielectric matrix)
  average eigenvalue GAMMA=   2.0495
  1.5737  2.5252

 Free energy of the ion-electron system (eV)
  ---------------------------------------------------
  alpha Z        PSCENC =        30.28014394
  Ewald energy   TEWEN  =     14973.24208224
  -Hartree energ DENC   =    -16959.84575539
  -exchange      EXHF   =         0.00000000
  -V(xc)+E(xc)   XCENC  =        43.06890206
  PAW double counting   =      6235.12355742    -6138.21466386
  entropy T*S    EENTRO =        -0.00000025
  eigenvalues    EBANDS =      -360.50002499
  atomic energy  EATOM  =      2112.50643729
  Solvation  Ediel_sol  =         0.00000000
  ---------------------------------------------------
  free energy    TOTEN  =       -64.33932155 eV

  energy without entropy =      -64.33932130  energy(sigma->0) =      -64.33932142


--------------------------------------------------------------------------------------------------------




--------------------------------------- Iteration      1(   8)  ---------------------------------------


    POTLOK:  cpu time    0.0240: real time    0.0257
    SETDIJ:  cpu time    0.0646: real time    0.0646
     EDDAV:  cpu time    0.7733: real time    0.7742
       DOS:  cpu time    0.0005: real time    0.0005
    CHARGE:  cpu time    0.0431: real time    0.0431
    MIXING:  cpu time    0.0009: real time    0.0009
    --------------------------------------------
      LOOP:  cpu time    0.9063: real time    0.9089

 eigenvalue-minimisations  :  1248
 total energy-change (2. order) : 0.2938029E-03  (-0.3150947E-02)
 number of electron      60.0000001 magnetization 
 augmentation part       -6.4459986 magnetization 

 Broyden mixing:
  rms(total) = 0.23117E-01    rms(broyden)= 0.23117E-01
  rms(prec ) = 0.23814E-01
  weight for this iteration     100.00

 eigenvalues of (default mixing * dielectric matrix)
  average eigenvalue GAMMA=   1.6026
  2.5238  1.1420  1.1420

 Free energy of the ion-electron system (eV)
  ---------------------------------------------------
  alpha Z        PSCENC =        30.28014394
  Ewald energy   TEWEN  =     14973.24208224
  -Hartree energ DENC   =    -16961.02250643
  -exchange      EXHF   =         0.00000000
  -V(xc)+E(xc)   XCENC  =        43.09933745
  PAW double counting   =      6339.34831013    -6242.36719283
  entropy T*S    EENTRO =        -0.00000006
  eigenvalues    EBANDS =      -359.42563946
  atomic energy  EATOM  =      2112.50643729
  Solvation  Ediel_sol  =         0.00000000
  ---------------------------------------------------
  free energy    TOTEN  =       -64.33902774 eV

  energy without entropy =      -64.33902768  energy(sigma->0) =      -64.33902771


--------------------------------------------------------------------------------------------------------




--------------------------------------- Iteration      1(   9)  ---------------------------------------


    POTLOK:  cpu time    0.0241: real time    0.0257
    SETDIJ:  cpu time    0.0646: real time    0.0646
     EDDAV:  cpu time    0.9112: real time    0.9120
       DOS:  cpu time    0.0005: real time    0.0005
    CHARGE:  cpu time    0.0434: real time    0.0434
    MIXING:  cpu time    0.0010: real time    0.0010
    --------------------------------------------
      LOOP:  cpu time    1.0447: real time    1.0472

 eigenvalue-minimisations  :  1416
 total energy-change (2. order) : 0.4125014E-04  (-0.1747661E-03)
 number of electron      60.0000001 magnetization 
 augmentation part       -6.4463747 magnetization 

 Broyden mixing:
  rms(total) = 0.19495E-01    rms(broyden)= 0.19495E-01
  rms(prec ) = 0.20084E-01
  weight for this iteration     100.00

 eigenvalues of (default mixing * dielectric matrix)
  average eigenvalue GAMMA=   1.8418
  2.2729  2.2729  1.4107  1.4107

 Free energy of the ion-electron system (eV)
  ---------------------------------------------------
  alpha Z        PSCENC =        30.28014394
  Ewald energy   TEWEN  =     14973.24208224
  -Hartree energ DENC   =    -16961.84368370
  -exchange      EXHF   =         0.00000000
  -V(xc)+E(xc)   XCENC  =        43.10859954
  PAW double counting   =      6339.38889279    -6242.40033603
  entropy T*S    EENTRO =        -0.00000006
  eigenvalues    EBANDS =      -358.62112250
  atomic energy  EATOM  =      2112.50643729
  Solvation  Ediel_sol  =         0.00000000
  ---------------------------------------------------
  free energy    TOTEN  =       -64.33898649 eV

  energy without entropy =      -64.33898643  energy(sigma->0) =      -64.33898646


--------------------------------------------------------------------------------------------------------




--------------------------------------- Iteration      1(  10)  ---------------------------------------


    POTLOK:  cpu time    0.0242: real time    0.0257
    SETDIJ:  cpu time    0.0646: real time    0.0646
     EDDAV:  cpu time    0.7602: real time    0.7611
       DOS:  cpu time    0.0005: real time    0.0005
    CHARGE:  cpu time    0.0432: real time    0.0433
    MIXING:  cpu time    0.0009: real time    0.0009
    --------------------------------------------
      LOOP:  cpu time    0.8936: real time    0.8960

 eigenvalue-minimisations  :  1200
 total energy-change (2. order) : 0.2441782E-03  (-0.3582016E-04)
 number of electron      60.0000001 magnetization 
 augmentation part       -6.4475977 magnetization 

 Broyden mixing:
  rms(total) = 0.14393E-01    rms(broyden)= 0.14393E-01
  rms(prec ) = 0.14881E-01
  weight for this iteration     100.00

 eigenvalues of (default mixing * dielectric matrix)
  average eigenvalue GAMMA=   1.7754
  2.5489  2.5489  1.4830  1.1481  1.1481

 Free energy of the ion-electron system (eV)
  ---------------------------------------------------
  alpha Z        PSCENC =        30.28014394
  Ewald energy   TEWEN  =     14973.24208224
  -Hartree energ DENC   =    -16962.84215693
  -exchange      EXHF   =         0.00000000
  -V(xc)+E(xc)   XCENC  =        43.09307493
  PAW double counting   =      6266.25935227    -6169.24712927
  entropy T*S    EENTRO =        -0.00000004
  eigenvalues    EBANDS =      -357.63054674
  atomic energy  EATOM  =      2112.50643729
  Solvation  Ediel_sol  =         0.00000000
  ---------------------------------------------------
  free energy    TOTEN  =       -64.33874231 eV

  energy without entropy =      -64.33874228  energy(sigma->0) =      -64.33874230


--------------------------------------------------------------------------------------------------------




--------------------------------------- Iteration      1(  11)  ---------------------------------------


    POTLOK:  cpu time    0.0243: real time    0.0259
    SETDIJ:  cpu time    0.0647: real time    0.0647
     EDDAV:  cpu time    0.7747: real time    0.7755
       DOS:  cpu time    0.0005: real time    0.0005
    CHARGE:  cpu time    0.0444: real time    0.0444
    MIXING:  cpu time    0.0009: real time    0.0009
    --------------------------------------------
      LOOP:  cpu time    0.9097: real time    0.9121

 eigenvalue-minimisations  :  1248
 total energy-change (2. order) : 0.2608655E-03  (-0.4053694E-04)
 number of electron      60.0000001 magnetization 
 augmentation part       -6.4472209 magnetization 

 Broyden mixing:
  rms(total) = 0.49223E-02    rms(broyden)= 0.49223E-02
  rms(prec ) = 0.54298E-02
  weight for this iteration     100.00

 eigenvalues of (default mixing * dielectric matrix)
  average eigenvalue GAMMA=   1.6631
  2.5626  2.5626  1.4736  1.0345  1.1725  1.1725

 Free energy of the ion-electron system (eV)
  ---------------------------------------------------
  alpha Z        PSCENC =        30.28014394
  Ewald energy   TEWEN  =     14973.24208224
  -Hartree energ DENC   =    -16964.77946504
  -exchange      EXHF   =         0.00000000
  -V(xc)+E(xc)   XCENC  =        43.12438656
  PAW double counting   =      6283.72345978    -6186.70506671
  entropy T*S    EENTRO =        -0.00000005
  eigenvalues    EBANDS =      -355.73045945
  atomic energy  EATOM  =      2112.50643729
  Solvation  Ediel_sol  =         0.00000000
  ---------------------------------------------------
  free energy    TOTEN  =       -64.33848145 eV

  energy without entropy =      -64.33848140  energy(sigma->0) =      -64.33848143


--------------------------------------------------------------------------------------------------------




--------------------------------------- Iteration      1(  12)  ---------------------------------------


    POTLOK:  cpu time    0.0251: real time    0.0269
    SETDIJ:  cpu time    0.0647: real time    0.0647
     EDDAV:  cpu time    0.7823: real time    0.7831
       DOS:  cpu time    0.0005: real time    0.0005
    CHARGE:  cpu time    0.0446: real time    0.0446
    MIXING:  cpu time    0.0012: real time    0.0012
    --------------------------------------------
      LOOP:  cpu time    0.9183: real time    0.9211

 eigenvalue-minimisations  :  1248
 total energy-change (2. order) :-0.7993643E-04  (-0.5830395E-05)
 number of electron      60.0000001 magnetization 
 augmentation part       -6.4471628 magnetization 

 Broyden mixing:
  rms(total) = 0.16423E-02    rms(broyden)= 0.16423E-02
  rms(prec ) = 0.24382E-02
  weight for this iteration     100.00

 eigenvalues of (default mixing * dielectric matrix)
  average eigenvalue GAMMA=   1.7657
  2.9312  2.5565  1.6762  1.6762  1.3216  1.0422  1.1563

 Free energy of the ion-electron system (eV)
  ---------------------------------------------------
  alpha Z        PSCENC =        30.28014394
  Ewald energy   TEWEN  =     14973.24208224
  -Hartree energ DENC   =    -16965.46843890
  -exchange      EXHF   =         0.00000000
  -V(xc)+E(xc)   XCENC  =        43.12995329
  PAW double counting   =      6290.50067750    -6193.48266455
  entropy T*S    EENTRO =        -0.00000005
  eigenvalues    EBANDS =      -355.04675214
  atomic energy  EATOM  =      2112.50643729
  Solvation  Ediel_sol  =         0.00000000
  ---------------------------------------------------
  free energy    TOTEN  =       -64.33856139 eV

  energy without entropy =      -64.33856133  energy(sigma->0) =      -64.33856136


--------------------------------------------------------------------------------------------------------




--------------------------------------- Iteration      1(  13)  ---------------------------------------


    POTLOK:  cpu time    0.0258: real time    0.0259
    SETDIJ:  cpu time    0.0648: real time    0.0647
     EDDAV:  cpu time    0.7119: real time    0.7130
       DOS:  cpu time    0.0005: real time    0.0005
    CHARGE:  cpu time    0.0433: real time    0.0433
    MIXING:  cpu time    0.0010: real time    0.0010
    --------------------------------------------
      LOOP:  cpu time    0.8472: real time    0.8485

 eigenvalue-minimisations  :  1112
 total energy-change (2. order) :-0.2100032E-03  (-0.7730555E-05)
 number of electron      60.0000001 magnetization 
 augmentation part       -6.4469281 magnetization 

 Broyden mixing:
  rms(total) = 0.35876E-02    rms(broyden)= 0.35876E-02
  rms(prec ) = 0.37203E-02
  weight for this iteration     100.00

 eigenvalues of (default mixing * dielectric matrix)
  average eigenvalue GAMMA=   1.7965
  3.5882  2.4164  2.4164  1.6174  1.1468  1.1468  1.0200  1.0200

 Free energy of the ion-electron system (eV)
  ---------------------------------------------------
  alpha Z        PSCENC =        30.28014394
  Ewald energy   TEWEN  =     14973.24208224
  -Hartree energ DENC   =    -16966.77137980
  -exchange      EXHF   =         0.00000000
  -V(xc)+E(xc)   XCENC  =        43.14025345
  PAW double counting   =      6297.99734255    -6200.97896858
  entropy T*S    EENTRO =        -0.00000006
  eigenvalues    EBANDS =      -353.75468241
  atomic energy  EATOM  =      2112.50643729
  Solvation  Ediel_sol  =         0.00000000
  ---------------------------------------------------
  free energy    TOTEN  =       -64.33877139 eV

  energy without entropy =      -64.33877133  energy(sigma->0) =      -64.33877136


--------------------------------------------------------------------------------------------------------




--------------------------------------- Iteration      1(  14)  ---------------------------------------


    POTLOK:  cpu time    0.0245: real time    0.0260
    SETDIJ:  cpu time    0.0647: real time    0.0647
     EDDAV:  cpu time    0.6712: real time    0.6724
       DOS:  cpu time    0.0005: real time    0.0005
    CHARGE:  cpu time    0.0443: real time    0.0443
    MIXING:  cpu time    0.0012: real time    0.0012
    --------------------------------------------
      LOOP:  cpu time    0.8063: real time    0.8091

 eigenvalue-minimisations  :  1024
 total energy-change (2. order) :-0.1540817E-03  (-0.2538464E-05)
 number of electron      60.0000001 magnetization 
 augmentation part       -6.4467891 magnetization 

 Broyden mixing:
  rms(total) = 0.32390E-02    rms(broyden)= 0.32390E-02
  rms(prec ) = 0.33043E-02
  weight for this iteration     100.00

 eigenvalues of (default mixing * dielectric matrix)
  average eigenvalue GAMMA=   1.6336
  3.4273  2.3936  2.3936  1.6744  1.2046  1.2046  1.0740  0.9209  0.4089

 Free energy of the ion-electron system (eV)
  ---------------------------------------------------
  alpha Z        PSCENC =        30.28014394
  Ewald energy   TEWEN  =     14973.24208224
  -Hartree energ DENC   =    -16967.32655828
  -exchange      EXHF   =         0.00000000
  -V(xc)+E(xc)   XCENC  =        43.14244789
  PAW double counting   =      6295.96712918    -6198.94890715
  entropy T*S    EENTRO =        -0.00000006
  eigenvalues    EBANDS =      -353.20170051
  atomic energy  EATOM  =      2112.50643729
  Solvation  Ediel_sol  =         0.00000000
  ---------------------------------------------------
  free energy    TOTEN  =       -64.33892547 eV

  energy without entropy =      -64.33892541  energy(sigma->0) =      -64.33892544


--------------------------------------------------------------------------------------------------------




--------------------------------------- Iteration      1(  15)  ---------------------------------------


    POTLOK:  cpu time    0.0264: real time    0.0265
    SETDIJ:  cpu time    0.0838: real time    0.0838
     EDDAV:  cpu time    0.5646: real time    0.5654
       DOS:  cpu time    0.0005: real time    0.0005
    CHARGE:  cpu time    0.0430: real time    0.0430
    MIXING:  cpu time    0.0012: real time    0.0012
    --------------------------------------------
      LOOP:  cpu time    0.7195: real time    0.7204

 eigenvalue-minimisations  :   784
 total energy-change (2. order) :-0.6028831E-04  (-0.2815056E-06)
 number of electron      60.0000001 magnetization 
 augmentation part       -6.4468089 magnetization 

 Broyden mixing:
  rms(total) = 0.14383E-02    rms(broyden)= 0.14383E-02
  rms(prec ) = 0.15542E-02
  weight for this iteration     100.00

 eigenvalues of (default mixing * dielectric matrix)
  average eigenvalue GAMMA=   2.0524
  5.9582  2.8235  2.4376  1.8409  1.8409  1.3553  1.3553  1.0782  0.9172  0.9172

 Free energy of the ion-electron system (eV)
  ---------------------------------------------------
  alpha Z        PSCENC =        30.28014394
  Ewald energy   TEWEN  =     14973.24208224
  -Hartree energ DENC   =    -16967.38300813
  -exchange      EXHF   =         0.00000000
  -V(xc)+E(xc)   XCENC  =        43.14158711
  PAW double counting   =      6292.67271392    -6195.65442436
  entropy T*S    EENTRO =        -0.00000007
  eigenvalues    EBANDS =      -353.14451770
  atomic energy  EATOM  =      2112.50643729
  Solvation  Ediel_sol  =         0.00000000
  ---------------------------------------------------
  free energy    TOTEN  =       -64.33898576 eV

  energy without entropy =      -64.33898569  energy(sigma->0) =      -64.33898573


--------------------------------------------------------------------------------------------------------




--------------------------------------- Iteration      1(  16)  ---------------------------------------


    POTLOK:  cpu time    0.0266: real time    0.0267
    SETDIJ:  cpu time    0.0646: real time    0.0646
     EDDAV:  cpu time    0.6454: real time    0.6460
       DOS:  cpu time    0.0005: real time    0.0005
    CHARGE:  cpu time    0.0429: real time    0.0431
    MIXING:  cpu time    0.0012: real time    0.0012
    --------------------------------------------
      LOOP:  cpu time    0.7811: real time    0.7820

 eigenvalue-minimisations  :   968
 total energy-change (2. order) :-0.2282060E-03  (-0.2731756E-05)
 number of electron      60.0000001 magnetization 
 augmentation part       -6.4467287 magnetization 

 Broyden mixing:
  rms(total) = 0.20043E-02    rms(broyden)= 0.20043E-02
  rms(prec ) = 0.20128E-02
  weight for this iteration     100.00

 eigenvalues of (default mixing * dielectric matrix)
  average eigenvalue GAMMA=   1.9796
  6.5419  2.7425  2.2602  1.9941  1.9941  1.3164  1.3164  1.0994  0.8435  0.8334
  0.8334

 Free energy of the ion-electron system (eV)
  ---------------------------------------------------
  alpha Z        PSCENC =        30.28014394
  Ewald energy   TEWEN  =     14973.24208224
  -Hartree energ DENC   =    -16968.09633418
  -exchange      EXHF   =         0.00000000
  -V(xc)+E(xc)   XCENC  =        43.14214874
  PAW double counting   =      6285.72672408    -6188.70812086
  entropy T*S    EENTRO =        -0.00000007
  eigenvalues    EBANDS =      -352.43229514
  atomic energy  EATOM  =      2112.50643729
  Solvation  Ediel_sol  =         0.00000000
  ---------------------------------------------------
  free energy    TOTEN  =       -64.33921396 eV

  energy without entropy =      -64.33921390  energy(sigma->0) =      -64.33921393


--------------------------------------------------------------------------------------------------------




--------------------------------------- Iteration      1(  17)  ---------------------------------------


    POTLOK:  cpu time    0.0248: real time    0.0267
    SETDIJ:  cpu time    0.0646: real time    0.0646
     EDDAV:  cpu time    0.5727: real time    0.5736
       DOS:  cpu time    0.0005: real time    0.0005
    CHARGE:  cpu time    0.0431: real time    0.0431
    MIXING:  cpu time    0.0012: real time    0.0012
    --------------------------------------------
      LOOP:  cpu time    0.7069: real time    0.7097

 eigenvalue-minimisations  :   800
 total energy-change (2. order) :-0.2028290E-04  (-0.1552995E-06)
 number of electron      60.0000001 magnetization 
 augmentation part       -6.4467471 magnetization 

 Broyden mixing:
  rms(total) = 0.14978E-02    rms(broyden)= 0.14978E-02
  rms(prec ) = 0.15043E-02
  weight for this iteration     100.00

 eigenvalues of (default mixing * dielectric matrix)
  average eigenvalue GAMMA=   2.0155
  6.6060  2.5344  2.5344  2.4777  1.5463  1.5463  1.5464  1.5464  0.9648  0.9648
  0.9595  0.9595

 Free energy of the ion-electron system (eV)
  ---------------------------------------------------
  alpha Z        PSCENC =        30.28014394
  Ewald energy   TEWEN  =     14973.24208224
  -Hartree energ DENC   =    -16968.16349155
  -exchange      EXHF   =         0.00000000
  -V(xc)+E(xc)   XCENC  =        43.14231939
  PAW double counting   =      6286.65192413    -6189.63313211
  entropy T*S    EENTRO =        -0.00000007
  eigenvalues    EBANDS =      -352.36551751
  atomic energy  EATOM  =      2112.50643729
  Solvation  Ediel_sol  =         0.00000000
  ---------------------------------------------------
  free energy    TOTEN  =       -64.33923425 eV

  energy without entropy =      -64.33923418  energy(sigma->0) =      -64.33923421


--------------------------------------------------------------------------------------------------------




--------------------------------------- Iteration      1(  18)  ---------------------------------------


    POTLOK:  cpu time    0.0248: real time    0.0264
    SETDIJ:  cpu time    0.0646: real time    0.0646
     EDDAV:  cpu time    0.5579: real time    0.5588
       DOS:  cpu time    0.0005: real time    0.0005
    CHARGE:  cpu time    0.0432: real time    0.0432
    MIXING:  cpu time    0.0013: real time    0.0013
    --------------------------------------------
      LOOP:  cpu time    0.6922: real time    0.6947

 eigenvalue-minimisations  :   768
 total energy-change (2. order) :-0.3429623E-04  (-0.1309277E-06)
 number of electron      60.0000001 magnetization 
 augmentation part       -6.4467755 magnetization 

 Broyden mixing:
  rms(total) = 0.29547E-03    rms(broyden)= 0.29547E-03
  rms(prec ) = 0.30555E-03
  weight for this iteration     100.00

 eigenvalues of (default mixing * dielectric matrix)
  average eigenvalue GAMMA=   2.0971
  7.5781  3.5170  2.6169  2.1979  1.6956  1.6956  1.6226  1.6226  1.0943  0.8966
  0.8966  0.9145  0.9145

 Free energy of the ion-electron system (eV)
  ---------------------------------------------------
  alpha Z        PSCENC =        30.28014394
  Ewald energy   TEWEN  =     14973.24208224
  -Hartree energ DENC   =    -16968.19842295
  -exchange      EXHF   =         0.00000000
  -V(xc)+E(xc)   XCENC  =        43.14253902
  PAW double counting   =      6289.24749281    -6192.22860747
  entropy T*S    EENTRO =        -0.00000007
  eigenvalues    EBANDS =      -352.33093335
  atomic energy  EATOM  =      2112.50643729
  Solvation  Ediel_sol  =         0.00000000
  ---------------------------------------------------
  free energy    TOTEN  =       -64.33926854 eV

  energy without entropy =      -64.33926848  energy(sigma->0) =      -64.33926851


--------------------------------------------------------------------------------------------------------




--------------------------------------- Iteration      1(  19)  ---------------------------------------


    POTLOK:  cpu time    0.0249: real time    0.0264
    SETDIJ:  cpu time    0.0646: real time    0.0646
     EDDAV:  cpu time    0.5819: real time    0.5828
       DOS:  cpu time    0.0005: real time    0.0005
    CHARGE:  cpu time    0.0436: real time    0.0436
    MIXING:  cpu time    0.0013: real time    0.0013
    --------------------------------------------
      LOOP:  cpu time    0.7168: real time    0.7192

 eigenvalue-minimisations  :   800
 total energy-change (2. order) :-0.2408556E-04  (-0.9380463E-07)
 number of electron      60.0000001 magnetization 
 augmentation part       -6.4467683 magnetization 

 Broyden mixing:
  rms(total) = 0.34489E-03    rms(broyden)= 0.34489E-03
  rms(prec ) = 0.34833E-03
  weight for this iteration     100.00

 eigenvalues of (default mixing * dielectric matrix)
  average eigenvalue GAMMA=   1.9934
  7.7263  3.4464  2.5752  2.1845  1.6035  1.6035  1.5302  1.5302  0.9569  0.9569
  1.1405  0.9318  0.9318  0.7898

 Free energy of the ion-electron system (eV)
  ---------------------------------------------------
  alpha Z        PSCENC =        30.28014394
  Ewald energy   TEWEN  =     14973.24208224
  -Hartree energ DENC   =    -16968.23697092
  -exchange      EXHF   =         0.00000000
  -V(xc)+E(xc)   XCENC  =        43.14255237
  PAW double counting   =      6290.18114380    -6193.16236313
  entropy T*S    EENTRO =        -0.00000007
  eigenvalues    EBANDS =      -352.29231815
  atomic energy  EATOM  =      2112.50643729
  Solvation  Ediel_sol  =         0.00000000
  ---------------------------------------------------
  free energy    TOTEN  =       -64.33929263 eV

  energy without entropy =      -64.33929256  energy(sigma->0) =      -64.33929260


--------------------------------------------------------------------------------------------------------




--------------------------------------- Iteration      1(  20)  ---------------------------------------


    POTLOK:  cpu time    0.0252: real time    0.0267
    SETDIJ:  cpu time    0.0646: real time    0.0646
     EDDAV:  cpu time    0.5442: real time    0.5450
       DOS:  cpu time    0.0005: real time    0.0005
    --------------------------------------------
      LOOP:  cpu time    0.7173: real time    0.7196

 eigenvalue-minimisations  :   720
 total energy-change (2. order) :-0.4253883E-05  (-0.1381314E-07)
 number of electron      60.0000001 magnetization 
 augmentation part       -6.4467683 magnetization 

 Free energy of the ion-electron system (eV)
  ---------------------------------------------------
  alpha Z        PSCENC =        30.28014394
  Ewald energy   TEWEN  =     14973.24208224
  -Hartree energ DENC   =    -16968.24424376
  -exchange      EXHF   =         0.00000000
  -V(xc)+E(xc)   XCENC  =        43.14258348
  PAW double counting   =      6290.18352955    -6193.16476237
  entropy T*S    EENTRO =        -0.00000007
  eigenvalues    EBANDS =      -352.28506719
  atomic energy  EATOM  =      2112.50643729
  Solvation  Ediel_sol  =         0.00000000
  ---------------------------------------------------
  free energy    TOTEN  =       -64.33929688 eV

  energy without entropy =      -64.33929682  energy(sigma->0) =      -64.33929685


--------------------------------------------------------------------------------------------------------




 the core state eigenenergies are
   1-  1s  -2078.3861  2s   -168.4184  2p   -118.9039
   2-  1s  -2078.3861  2s   -168.4184  2p   -118.9039
   3-  1s  -2078.4446  2s   -168.4710  2p   -118.9570
   4-  1s  -2078.4446  2s   -168.4710  2p   -118.9570
   5-  1s  -2078.4782  2s   -168.5044  2p   -118.9905
   6-  1s  -2078.4782  2s   -168.5044  2p   -118.9905
   7-  1s  -2078.4782  2s   -168.5044  2p   -118.9905
   8-  1s  -2078.4782  2s   -168.5044  2p   -118.9905
   9-  1s  -2078.4446  2s   -168.4710  2p   -118.9570
  10-  1s  -2078.4446  2s   -168.4710  2p   -118.9570
  11-  1s  -2078.3861  2s   -168.4184  2p   -118.9039
  12-  1s  -2078.3861  2s   -168.4184  2p   -118.9039
 
 E-fermi :   0.9402     XC(G=0):  -5.1082     alpha+bet : -5.5572


 k-point     1 :       0.0000    0.0000    0.0000
  band No.  band energies     occupation 
      1     -14.8538      2.00000
      2     -14.7331      2.00000
      3     -14.6646      2.00000
      4     -12.3727      2.00000
      5     -12.1265      2.00000
      6     -11.9470      2.00000
      7      -8.6057      2.00000
      8      -8.5211      2.00000
      9      -8.4910      2.00000
     10      -5.9234      2.00000
     11      -5.5444      2.00000
     12      -5.1262      2.00000
     13      -4.5042      2.00000
     14      -4.5041      2.00000
     15      -4.1863      2.00000
     16      -4.1422      2.00000
     17      -3.9949      2.00000
     18      -3.9207      2.00000
     19      -3.3932      2.00000
     20      -3.2920      2.00000
     21      -3.2424      2.00000
     22      -1.8791      2.00000
     23      -1.7359      2.00000
     24      -1.6237      2.00000
     25      -1.5885      2.00000
     26      -1.5036      2.00000
     27      -1.1070      2.00000
     28      -0.2488      2.00000
     29       0.3552      2.00000
     30       0.9105      1.99997
     31       0.9700      0.00003
     32       1.4978      0.00000
     33       1.5234      0.00000
     34       1.6980      0.00000
     35       1.7058      0.00000
     36       1.8615      0.00000
     37       2.7307      0.00000
     38       2.9015      0.00000
     39       2.9721      0.00000
     40       3.6905      0.00000

 k-point     2 :       0.1667    0.0000    0.0000
  band No.  band energies     occupation 
      1     -14.5303      2.00000
      2     -14.4108      2.00000
      3     -14.3436      2.00000
      4     -12.0360      2.00000
      5     -11.7912      2.00000
      6     -11.6128      2.00000
      7      -8.8985      2.00000
      8      -8.8368      2.00000
      9      -8.8308      2.00000
     10      -5.6504      2.00000
     11      -5.2791      2.00000
     12      -4.9718      2.00000
     13      -4.8902      2.00000
     14      -4.8840      2.00000
     15      -4.8522      2.00000
     16      -4.4277      2.00000
     17      -4.3544      2.00000
     18      -4.3435      2.00000
     19      -4.2180      2.00000
     20      -3.8735      2.00000
     21      -3.7294      2.00000
     22      -2.6609      2.00000
     23      -2.5102      2.00000
     24      -2.3451      2.00000
     25      -1.7410      2.00000
     26      -1.4695      2.00000
     27      -0.9671      2.00000
     28      -0.2128      2.00000
     29       0.1878      2.00000
     30       0.4579      2.00000
     31       1.2533      0.00000
     32       1.6580      0.00000
     33       1.8822      0.00000
     34       2.3397      0.00000
     35       2.5518      0.00000
     36       2.5760      0.00000
     37       3.7505      0.00000
     38       3.8764      0.00000
     39       3.9807      0.00000
     40       4.2593      0.00000

 k-point     3 :       0.3333    0.0000    0.0000
  band No.  band energies     occupation 
      1     -13.5771      2.00000
      2     -13.4618      2.00000
      3     -13.3990      2.00000
      4     -11.0344      2.00000
      5     -10.7944      2.00000
      6     -10.6196      2.00000
      7     -10.2409      2.00000
      8     -10.1612      2.00000
      9     -10.1363      2.00000
     10      -7.2204      2.00000
     11      -7.0238      2.00000
     12      -6.8860      2.00000
     13      -4.9298      2.00000
     14      -4.9052      2.00000
     15      -4.8484      2.00000
     16      -4.8393      2.00000
     17      -4.6041      2.00000
     18      -4.3149      2.00000
     19      -3.4252      2.00000
     20      -3.1558      2.00000
     21      -3.0329      2.00000
     22      -2.6848      2.00000
     23      -2.3950      2.00000
     24      -2.1609      2.00000
     25      -1.7899      2.00000
     26      -1.5206      2.00000
     27      -1.1891      2.00000
     28      -0.8924      2.00000
     29      -0.7522      2.00000
     30      -0.6889      2.00000
     31       1.1119      0.00000
     32       1.1734      0.00000
     33       1.4351      0.00000
     34       2.0743      0.00000
     35       2.2859      0.00000
     36       2.6035      0.00000
     37       2.6466      0.00000
     38       2.6626      0.00000
     39       2.6701      0.00000
     40       2.9514      0.00000

 k-point     4 :       0.5000    0.0000    0.0000
  band No.  band energies     occupation 
      1     -12.0666      2.00000
      2     -12.0666      2.00000
      3     -11.9613      2.00000
      4     -11.9613      2.00000
      5     -11.9091      2.00000
      6     -11.9091      2.00000
      7      -9.3990      2.00000
      8      -9.3990      2.00000
      9      -9.1700      2.00000
     10      -9.1700      2.00000
     11      -9.0041      2.00000
     12      -9.0041      2.00000
     13      -4.4689      2.00000
     14      -4.4689      2.00000
     15      -4.3342      2.00000
     16      -4.3342      2.00000
     17      -4.2887      2.00000
     18      -4.2887      2.00000
     19      -2.4667      2.00000
     20      -2.4667      2.00000
     21      -2.3926      2.00000
     22      -2.3926      2.00000
     23      -2.3922      2.00000
     24      -2.3922      2.00000
     25      -2.0097      2.00000
     26      -2.0097      2.00000
     27      -1.7388      2.00000
     28      -1.7388      2.00000
     29      -1.4868      2.00000
     30      -1.4868      2.00000
     31       1.6199      0.00000
     32       1.6199      0.00000
     33       1.6326      0.00000
     34       1.6326      0.00000
     35       1.7145      0.00000
     36       1.7145      0.00000
     37       2.1558      0.00000
     38       2.1574      0.00000
     39       2.1927      0.00000
     40       2.1965      0.00000

 k-point     5 :       0.0000    0.0000    0.2500
  band No.  band energies     occupation 
      1     -14.5023      2.00000
      2     -14.3889      2.00000
      3     -14.3281      2.00000
      4     -12.5952      2.00000
      5     -12.4609      2.00000
      6     -12.4005      2.00000
      7      -9.0048      2.00000
      8      -8.8477      2.00000
      9      -8.7254      2.00000
     10      -6.9110      2.00000
     11      -6.6379      2.00000
     12      -6.4703      2.00000
     13      -4.5478      2.00000
     14      -4.0367      2.00000
     15      -3.3748      2.00000
     16      -3.1160      2.00000
     17      -3.0625      2.00000
     18      -3.0232      2.00000
     19      -2.9825      2.00000
     20      -2.7176      2.00000
     21      -2.7166      2.00000
     22      -1.8644      2.00000
     23      -1.7634      2.00000
     24      -1.7325      2.00000
     25      -1.7250      2.00000
     26      -1.0737      2.00000
     27      -0.4250      2.00000
     28      -0.2664      2.00000
     29      -0.2035      2.00000
     30      -0.0261      2.00000
     31       1.6803      0.00000
     32       2.0069      0.00000
     33       2.1147      0.00000
     34       2.2078      0.00000
     35       2.2581      0.00000
     36       2.2615      0.00000
     37       2.3690      0.00000
     38       2.7097      0.00000
     39       3.2546      0.00000
     40       3.3100      0.00000

 k-point     6 :       0.1667    0.0000    0.2500
  band No.  band energies     occupation 
      1     -14.1835      2.00000
      2     -14.0713      2.00000
      3     -14.0118      2.00000
      4     -12.2792      2.00000
      5     -12.1494      2.00000
      6     -12.0931      2.00000
      7      -9.0386      2.00000
      8      -8.8859      2.00000
      9      -8.7730      2.00000
     10      -6.7951      2.00000
     11      -6.5652      2.00000
     12      -6.4187      2.00000
     13      -4.9851      2.00000
     14      -4.8441      2.00000
     15      -4.7154      2.00000
     16      -4.5106      2.00000
     17      -4.0365      2.00000
     18      -3.7227      2.00000
     19      -3.3122      2.00000
     20      -3.1965      2.00000
     21      -2.9131      2.00000
     22      -2.3348      2.00000
     23      -2.1641      2.00000
     24      -2.1424      2.00000
     25      -1.4980      2.00000
     26      -0.9504      2.00000
     27      -0.8600      2.00000
     28      -0.7296      2.00000
     29      -0.4594      2.00000
     30      -0.4112      2.00000
     31       2.0287      0.00000
     32       2.3136      0.00000
     33       2.5891      0.00000
     34       2.8643      0.00000
     35       3.0146      0.00000
     36       3.0664      0.00000
     37       3.3746      0.00000
     38       3.4989      0.00000
     39       3.6089      0.00000
     40       4.3244      0.00000

 k-point     7 :       0.3333    0.0000    0.2500
  band No.  band energies     occupation 
      1     -13.2525      2.00000
      2     -13.1449      2.00000
      3     -13.0903      2.00000
      4     -11.4359      2.00000
      5     -11.3331      2.00000
      6     -11.3003      2.00000
      7      -9.7492      2.00000
      8      -9.5887      2.00000
      9      -9.4794      2.00000
     10      -7.5232      2.00000
     11      -7.4356      2.00000
     12      -7.4151      2.00000
     13      -5.8319      2.00000
     14      -5.6639      2.00000
     15      -5.5308      2.00000
     16      -4.7966      2.00000
     17      -4.7519      2.00000
     18      -4.6768      2.00000
     19      -3.3907      2.00000
     20      -3.3096      2.00000
     21      -3.1763      2.00000
     22      -2.5115      2.00000
     23      -2.3670      2.00000
     24      -2.3627      2.00000
     25      -2.2348      2.00000
     26      -1.8466      2.00000
     27      -1.3291      2.00000
     28      -0.9588      2.00000
     29      -0.6586      2.00000
     30      -0.6229      2.00000
     31       1.7045      0.00000
     32       1.8327      0.00000
     33       2.0278      0.00000
     34       2.5159      0.00000
     35       2.7061      0.00000
     36       2.9624      0.00000
     37       3.1535      0.00000
     38       3.3312      0.00000
     39       3.3732      0.00000
     40       3.8751      0.00000

 k-point     8 :       0.5000    0.0000    0.2500
  band No.  band energies     occupation 
      1     -11.8536      2.00000
      2     -11.8536      2.00000
      3     -11.7613      2.00000
      4     -11.7613      2.00000
      5     -11.7232      2.00000
      6     -11.7232      2.00000
      7      -9.4299      2.00000
      8      -9.4299      2.00000
      9      -9.2718      2.00000
     10      -9.2718      2.00000
     11      -9.1807      2.00000
     12      -9.1807      2.00000
     13      -5.0166      2.00000
     14      -5.0166      2.00000
     15      -4.8267      2.00000
     16      -4.8267      2.00000
     17      -4.6752      2.00000
     18      -4.6752      2.00000
     19      -3.6855      2.00000
     20      -3.6855      2.00000
     21      -3.4408      2.00000
     22      -3.4408      2.00000
     23      -3.3079      2.00000
     24      -3.3079      2.00000
     25      -1.5483      2.00000
     26      -1.5483      2.00000
     27      -1.2044      2.00000
     28      -1.2044      2.00000
     29      -0.9088      2.00000
     30      -0.9088      2.00000
     31       2.0063      0.00000
     32       2.0063      0.00000
     33       2.3093      0.00000
     34       2.3093      0.00000
     35       2.4560      0.00000
     36       2.4560      0.00000
     37       3.1809      0.00000
     38       3.1809      0.00000
     39       3.4049      0.00000
     40       3.4049      0.00000

 k-point     9 :       0.0000    0.0000    0.5000
  band No.  band energies     occupation 
      1     -13.5460      2.00000
      2     -13.5460      2.00000
      3     -13.4758      2.00000
      4     -13.4758      2.00000
      5     -13.4297      2.00000
      6     -13.4297      2.00000
      7      -8.5701      2.00000
      8      -8.5701      2.00000
      9      -8.2533      2.00000
     10      -8.2533      2.00000
     11      -7.9800      2.00000
     12      -7.9800      2.00000
     13      -3.5901      2.00000
     14      -3.5901      2.00000
     15      -2.8271      2.00000
     16      -2.8271      2.00000
     17      -2.4221      2.00000
     18      -2.4221      2.00000
     19      -2.3777      2.00000
     20      -2.3777      2.00000
     21      -2.3326      2.00000
     22      -2.3326      2.00000
     23      -2.0223      2.00000
     24      -2.0223      2.00000
     25      -0.7268      2.00000
     26      -0.7268      2.00000
     27      -0.5187      2.00000
     28      -0.5187      2.00000
     29      -0.4465      2.00000
     30      -0.4465      2.00000
     31       2.1907      0.00000
     32       2.1907      0.00000
     33       2.2347      0.00000
     34       2.2347      0.00000
     35       2.2870      0.00000
     36       2.2870      0.00000
     37       3.4184      0.00000
     38       3.4186      0.00000
     39       3.5673      0.00000
     40       3.6030      0.00000

 k-point    10 :       0.1667    0.0000    0.5000
  band No.  band energies     occupation 
      1     -13.2400      2.00000
      2     -13.2400      2.00000
      3     -13.1700      2.00000
      4     -13.1700      2.00000
      5     -13.1248      2.00000
      6     -13.1248      2.00000
      7      -8.4254      2.00000
      8      -8.4254      2.00000
      9      -8.1348      2.00000
     10      -8.1348      2.00000
     11      -7.8945      2.00000
     12      -7.8945      2.00000
     13      -4.3692      2.00000
     14      -4.3692      2.00000
     15      -4.2627      2.00000
     16      -4.2627      2.00000
     17      -4.1648      2.00000
     18      -4.1648      2.00000
     19      -3.3501      2.00000
     20      -3.3501      2.00000
     21      -2.6366      2.00000
     22      -2.6366      2.00000
     23      -1.9670      2.00000
     24      -1.9670      2.00000
     25      -0.8110      2.00000
     26      -0.8110      2.00000
     27      -0.6437      2.00000
     28      -0.6437      2.00000
     29      -0.4906      2.00000
     30      -0.4906      2.00000
     31       2.8460      0.00000
     32       2.8460      0.00000
     33       2.9841      0.00000
     34       2.9841      0.00000
     35       3.0977      0.00000
     36       3.0977      0.00000
     37       3.5146      0.00000
     38       3.5146      0.00000
     39       3.9757      0.00000
     40       3.9757      0.00000

 k-point    11 :       0.3333    0.0000    0.5000
  band No.  band energies     occupation 
      1     -12.3821      2.00000
      2     -12.3821      2.00000
      3     -12.3141      2.00000
      4     -12.3141      2.00000
      5     -12.2742      2.00000
      6     -12.2742      2.00000
      7      -8.6626      2.00000
      8      -8.6626      2.00000
      9      -8.5126      2.00000
     10      -8.5126      2.00000
     11      -8.4271      2.00000
     12      -8.4271      2.00000
     13      -5.7949      2.00000
     14      -5.7949      2.00000
     15      -5.5434      2.00000
     16      -5.5434      2.00000
     17      -5.3190      2.00000
     18      -5.3190      2.00000
     19      -3.4343      2.00000
     20      -3.4343      2.00000
     21      -3.0675      2.00000
     22      -3.0675      2.00000
     23      -2.7847      2.00000
     24      -2.7847      2.00000
     25      -1.8720      2.00000
     26      -1.8720      2.00000
     27      -1.3262      2.00000
     28      -1.3262      2.00000
     29      -0.8274      2.00000
     30      -0.8274      2.00000
     31       2.6930      0.00000
     32       2.6930      0.00000
     33       3.2799      0.00000
     34       3.2799      0.00000
     35       3.9573      0.00000
     36       3.9577      0.00000
     37       3.9842      0.00000
     38       3.9888      0.00000
     39       4.0885      0.00000
     40       4.1086      0.00000

 k-point    12 :       0.5000    0.0000    0.5000
  band No.  band energies     occupation 
      1     -11.5657      2.00000
      2     -11.5657      2.00000
      3     -11.5092      2.00000
      4     -11.5092      2.00000
      5     -11.5091      2.00000
      6     -11.5091      2.00000
      7      -9.5289      2.00000
      8      -9.5289      2.00000
      9      -9.4650      2.00000
     10      -9.4650      2.00000
     11      -9.4637      2.00000
     12      -9.4637      2.00000
     13      -4.9600      2.00000
     14      -4.9600      2.00000
     15      -4.9452      2.00000
     16      -4.9452      2.00000
     17      -4.6700      2.00000
     18      -4.6700      2.00000
     19      -4.6164      2.00000
     20      -4.6164      2.00000
     21      -4.3744      2.00000
     22      -4.3744      2.00000
     23      -4.3737      2.00000
     24      -4.3737      2.00000
     25      -1.2336      2.00000
     26      -1.2336      2.00000
     27      -1.1791      2.00000
     28      -1.1791      2.00000
     29      -1.0507      2.00000
     30      -1.0507      2.00000
     31       2.6269      0.00000
     32       2.6269      0.00000
     33       2.7596      0.00000
     34       2.7596      0.00000
     35       2.8985      0.00000
     36       2.8985      0.00000
     37       4.8109      0.00000
     38       4.8286      0.00000
     39       4.8658      0.00000
     40       4.8693      0.00000


--------------------------------------------------------------------------------------------------------


 soft charge-density along one line, spin component           1
         0         1         2         3         4         5         6         7         8         9
 total charge-density along one line
 
 pseudopotential strength for first ion, spin component:           1
 29.685  37.031   0.035  -0.033   0.000   0.055  -0.052   0.000
 37.031  46.199   0.044  -0.041   0.000   0.068  -0.064   0.000
  0.035   0.044   6.554   0.006  -0.000  10.135   0.009  -0.000
 -0.033  -0.041   0.006   6.558  -0.000   0.009  10.141  -0.000
  0.000   0.000  -0.000  -0.000   6.562  -0.000  -0.000  10.147
  0.055   0.068  10.135   0.009  -0.000  15.692   0.014  -0.000
 -0.052  -0.064   0.009  10.141  -0.000   0.014  15.701  -0.000
  0.000   0.000  -0.000  -0.000  10.147  -0.000  -0.000  15.711
 total augmentation occupancy for first ion, spin component:           1
  8.277  -4.721   1.856  -1.946   0.000  -0.592   0.651   0.000
 -4.721   3.435  -1.596   1.652   0.000   0.438  -0.478   0.000
  1.856  -1.596   3.137   0.195   0.000  -0.828  -0.162   0.000
 -1.946   1.652   0.195   3.278   0.000  -0.161  -0.926   0.000
 -0.000   0.000   0.000   0.000   3.407   0.000   0.000  -1.030
 -0.592   0.438  -0.828  -0.161   0.000   0.260   0.070   0.000
  0.651  -0.478  -0.162  -0.926  -0.000   0.070   0.300   0.000
 -0.000  -0.000   0.000   0.000  -1.030   0.000  -0.000   0.341


------------------------ aborting loop because EDIFF is reached ----------------------------------------


 


 total charge     
 
# of ion       s       p       d       tot
------------------------------------------
    1        1.082   1.376   0.000   2.458
    2        1.082   1.376   0.000   2.458
    3        1.083   1.372   0.000   2.456
    4        1.083   1.372   0.000   2.456
    5        1.084   1.372   0.000   2.455
    6        1.084   1.372   0.000   2.455
    7        1.084   1.372   0.000   2.455
    8        1.084   1.372   0.000   2.455
    9        1.083   1.372   0.000   2.456
   10        1.083   1.372   0.000   2.456
   11        1.082   1.376   0.000   2.458
   12        1.082   1.376   0.000   2.458
--------------------------------------------------
tot         12.997  16.480   0.000  29.477
 
    CHARGE:  cpu time    0.0444: real time    0.0444
    FORLOC:  cpu time    0.0021: real time    0.0021
    FORNL :  cpu time    0.1685: real time    0.1686
    STRESS:  cpu time    0.2704: real time    0.2704
    FORCOR:  cpu time    0.0260: real time    0.0260
    FORHAR:  cpu time    0.0073: real time    0.0073
    MIXING:  cpu time    0.0013: real time    0.0013
    OFIELD:  cpu time    0.0000: real time    0.0000

  DFT-D2 method for vdW energy calculation
  -------------------------------------------------------------------

  Parameters of vdW forcefield:
         C6(Jnm^6/mol)     R0(A)
   -----------------------------
   P        7.840          1.705

  IVDW =  10
  VDW_RADIUS =    50.000 A
  VDW_S6 =     0.750
  VDW_SR =     1.000
  VDW_D =    20.000
  LVDW_EWALD = F

  Number of pair interactions contributing to vdW energy:   88382
  Edisp (eV):   -2.17394
    FORVDW:  cpu time    0.0522: real time    0.0528

  FORCE on cell =-STRESS in cart. coord.  units (eV):
  Direction    XX          YY          ZZ          XY          YZ          ZX
  --------------------------------------------------------------------------------------
  Alpha Z    30.28014    30.28014    30.28014
  Ewald   16591.01473-18044.25022 16426.47569    -0.00000     0.00000     0.00000
  Hartree 16898.17437-16770.91338 16840.98896    -0.00000    -0.00000    -0.00000
  E(xc)    -201.46555  -202.72360  -201.65547     0.00000     0.00000     0.00000
  Local  -34440.92785 33820.37874-34239.59402    -0.00000     0.00000     0.00000
  n-local   679.71075   678.05931   674.53823     0.00000    -0.00000     1.46306
  augment  -126.46623  -130.49261  -128.84000     0.00000    -0.00000    -0.00000
  Kinetic   570.18297   620.11044   600.02764     0.00000     0.00000     6.08078
  Fock        0.00000     0.00000     0.00000     0.00000     0.00000     0.00000
  vdW        -0.23282    -1.41063    -0.99576    -0.00000    -0.00000     0.00000
  -------------------------------------------------------------------------------------
  Total       0.27052    -0.96182     1.22542     0.00000     0.00000     0.00000
  in kB       0.90902    -3.23201     4.11777     0.00000     0.00000     0.00000
  external pressure =        0.60 kB  Pullay stress =        0.00 kB


 VOLUME and BASIS-vectors are now :
 -----------------------------------------------------------------------------
  energy-cutoff  :      550.00
  volume of cell :      476.80
      direct lattice vectors                 reciprocal lattice vectors
     3.342886000  0.000000000  0.000000000     0.299142717  0.000000000  0.000000000
     0.000000000 32.602409000  0.000000000     0.000000000  0.030672580  0.000000000
     0.000000000  0.000000000  4.374831000     0.000000000  0.000000000  0.228580258

  length of vectors
     3.342886000 32.602409000  4.374831000     0.299142717  0.030672580  0.228580258


 FORCES acting on ions
    electron-ion (+dipol)            ewald-force                    non-local-force                 convergence-correction
 -----------------------------------------------------------------------------------------------
   0.272E-14 0.823E+03 -.291E+02   0.114E-14 -.828E+03 0.342E+02   0.278E-16 0.582E+01 -.517E+01   -.187E-15 0.154E-02 0.209E-03
   0.209E-13 0.823E+03 0.291E+02   -.458E-14 -.828E+03 -.342E+02   0.278E-16 0.582E+01 0.517E+01   -.233E-15 0.154E-02 -.209E-03
   -.178E-14 0.459E+03 0.260E+02   0.181E-14 -.453E+03 -.313E+02   0.000E+00 -.552E+01 0.522E+01   0.386E-15 0.101E-02 -.427E-04
   0.207E-13 0.459E+03 -.260E+02   -.613E-14 -.453E+03 0.313E+02   0.000E+00 -.552E+01 -.522E+01   -.558E-15 0.101E-02 0.427E-04
   0.212E-13 0.183E+03 -.262E+02   0.754E-15 -.189E+03 0.314E+02   0.000E+00 0.546E+01 -.521E+01   -.159E-14 -.118E-02 0.408E-03
   -.267E-14 0.183E+03 0.262E+02   -.638E-14 -.189E+03 -.314E+02   0.000E+00 0.546E+01 0.521E+01   0.802E-15 -.118E-02 -.408E-03
   0.233E-13 -.183E+03 0.262E+02   0.197E-14 0.189E+03 -.314E+02   0.000E+00 -.546E+01 0.521E+01   -.110E-14 0.118E-02 -.408E-03
   -.230E-14 -.183E+03 -.262E+02   -.498E-14 0.189E+03 0.314E+02   0.000E+00 -.546E+01 -.521E+01   0.103E-14 0.118E-02 0.408E-03
   0.537E-15 -.459E+03 -.260E+02   0.911E-15 0.453E+03 0.313E+02   0.000E+00 0.552E+01 -.522E+01   0.119E-14 -.101E-02 0.427E-04
   0.211E-13 -.459E+03 0.260E+02   -.523E-14 0.453E+03 -.313E+02   0.000E+00 0.552E+01 0.522E+01   -.146E-14 -.101E-02 -.427E-04
   -.657E-15 -.823E+03 0.291E+02   0.158E-14 0.828E+03 -.342E+02   -.278E-16 -.582E+01 0.517E+01   -.676E-15 -.154E-02 -.209E-03
   0.190E-13 -.823E+03 -.291E+02   -.679E-14 0.828E+03 0.342E+02   -.278E-16 -.582E+01 -.517E+01   0.380E-15 -.154E-02 0.209E-03
 -----------------------------------------------------------------------------------------------
   0.122E-12 -.142E-11 0.423E-10   -.259E-13 0.000E+00 -.711E-14   0.000E+00 -.178E-14 0.000E+00   -.203E-14 -.121E-11 0.684E-14
 
 
 POSITION                                       TOTAL-FORCE (eV/Angst)
 -----------------------------------------------------------------------------------
      0.00000     10.00001      4.02014         0.000000      0.081013     -0.038070
      1.67144     10.00001      2.54211         0.000000      0.081013      0.038070
      0.00000     12.14332      0.35469         0.000000     -0.077181     -0.021880
      1.67144     12.14332      1.83272        -0.000000     -0.077181      0.021880
      1.67144     15.22953      4.02014         0.000000      0.038008      0.002884
      0.00000     15.22953      2.54211         0.000000      0.038008     -0.002884
      1.67144     17.37288      0.35469         0.000000     -0.038008     -0.002884
      0.00000     17.37288      1.83272         0.000000     -0.038008      0.002884
      0.00000     20.45909      4.02014         0.000000      0.077181      0.021880
      1.67144     20.45909      2.54211         0.000000      0.077181     -0.021880
      0.00000     22.60240      0.35469         0.000000     -0.081013      0.038070
      1.67144     22.60240      1.83272        -0.000000     -0.081013     -0.038070
 -----------------------------------------------------------------------------------
    total drift:                                0.000000     -0.000000      0.000000


--------------------------------------------------------------------------------------------------------



  FREE ENERGIE OF THE ION-ELECTRON SYSTEM (eV)
  ---------------------------------------------------
  free  energy   TOTEN  =       -66.51323640 eV

  energy  without entropy=      -66.51323634  energy(sigma->0) =      -66.51323637
 


--------------------------------------------------------------------------------------------------------


    POTLOK:  cpu time    0.1036: real time    0.1038


--------------------------------------------------------------------------------------------------------


 writing wavefunctions
     LOOP+:  cpu time   18.9327: real time   18.9969
    4ORBIT:  cpu time    0.0000: real time    0.0000
 


 total charge     
 
# of ion       s       p       d       tot
------------------------------------------
    1        1.082   1.376   0.000   2.458
    2        1.082   1.376   0.000   2.458
    3        1.083   1.372   0.000   2.456
    4        1.083   1.372   0.000   2.456
    5        1.084   1.372   0.000   2.455
    6        1.084   1.372   0.000   2.455
    7        1.084   1.372   0.000   2.455
    8        1.084   1.372   0.000   2.455
    9        1.083   1.372   0.000   2.456
   10        1.083   1.372   0.000   2.456
   11        1.082   1.376   0.000   2.458
   12        1.082   1.376   0.000   2.458
--------------------------------------------------
tot         12.997  16.480   0.000  29.477
 

 total amount of memory used by VASP MPI-rank0    39680. kBytes
=======================================================================

   base      :      30000. kBytes
   nonl-proj :       1678. kBytes
   fftplans  :       1843. kBytes
   grid      :       2767. kBytes
   one-center:          6. kBytes
   wavefun   :       3386. kBytes
 
  
  
 General timing and accounting informations for this job:
 ========================================================
  
                  Total CPU time used (sec):       26.445
                            User time (sec):       22.751
                          System time (sec):        3.694
                         Elapsed time (sec):       26.984
  
                   Maximum memory used (kb):      109832.
                   Average memory used (kb):           0.
  
                          Minor page faults:        43203
                          Major page faults:            0
                 Voluntary context switches:         2698
