<?xml version="1.0" encoding="ISO-8859-1"?>
<modeling>
 <generator>
  <i name="program" type="string">vasp </i>
  <i name="version" type="string">5.4.4.18Apr17-6-g9f103f2a35  </i>
  <i name="subversion" type="string">(build Jun 20 2017 18:00:50) complex            parallel </i>
  <i name="platform" type="string">LinuxIFC </i>
  <i name="date" type="string">2018 03 16 </i>
  <i name="time" type="string">15:58:54 </i>
 </generator>
 <incar>
  <i type="string" name="SYSTEM"> Generic Input</i>
  <i type="int" name="ISTART">     1</i>
  <i type="string" name="PREC">normal    ! precision level</i>
  <i type="int" name="IALGO">    53</i>
  <i type="string" name="ALGO"> Normal    ! SCF minimisation algorithm</i>
  <i type="int" name="INIWAV">     1</i>
  <i type="int" name="NELM">   200</i>
  <i type="int" name="NELMIN">     2</i>
  <i type="int" name="IBRION">     2</i>
  <i name="EDIFF">      0.00001000</i>
  <i name="EDIFFG">     -0.02000000</i>
  <i type="int" name="NSW">     0</i>
  <i type="int" name="ISIF">     3</i>
  <i type="int" name="IWAVPR">    11</i>
  <i type="int" name="NBLOCK">     1</i>
  <i type="int" name="KBLOCK">    40</i>
  <i name="ENCUT">    550.00000000</i>
  <i type="int" name="NEDOS">  2000</i>
  <i type="int" name="ISMEAR">     0</i>
  <i name="SIGMA">      0.01000000</i>
  <i type="int" name="NWRITE">     2</i>
  <i type="logical" name="LVHAR"> T  </i>
  <i type="int" name="LORBIT">    11</i>
  <i type="logical" name="LASPH"> T  </i>
  <i type="int" name="ICORELEVEL">     1</i>
  <v type="int" name="KPOINT_BSE">    -1     0     0     0</v>
  <i type="int" name="NELM">   200</i>
  <i type="string" name="GGA"> PE        ! PBEsol exchange-correlation</i>
  <i type="logical" name="LASPH"> T  </i>
 </incar>
 <structure name="primitive_cell" >
  <crystal>
   <varray name="basis" >
    <v>       3.34288600       0.00000000       0.00000000 </v>
    <v>       0.00000000      32.60240900       0.00000000 </v>
    <v>       0.00000000       0.00000000       4.37483100 </v>
   </varray>
   <i name="volume">    476.79592902 </i>
   <varray name="rec_basis" >
    <v>       0.29914272       0.00000000       0.00000000 </v>
    <v>       0.00000000       0.03067258       0.00000000 </v>
    <v>       0.00000000       0.00000000       0.22858026 </v>
   </varray>
  </crystal>
  <varray name="positions" >
   <v>       0.00000000       0.30672600      -0.08107600 </v>
   <v>      -0.50000000       0.30672600      -0.41892400 </v>
   <v>       0.00000000       0.37246700       0.08107600 </v>
   <v>      -0.50000000       0.37246700       0.41892400 </v>
   <v>       0.00000000       0.46712900      -0.41892400 </v>
   <v>      -0.50000000       0.46712900      -0.08107600 </v>
   <v>      -0.50000000      -0.46712900       0.08107600 </v>
   <v>       0.00000000      -0.46712900       0.41892400 </v>
   <v>       0.00000000      -0.37246700      -0.08107600 </v>
   <v>      -0.50000000      -0.37246700      -0.41892400 </v>
   <v>       0.00000000      -0.30672600       0.08107600 </v>
   <v>      -0.50000000      -0.30672600       0.41892400 </v>
  </varray>
 </structure>
 <varray name="primitive_index" >
  <v type="int" >        1 </v>
  <v type="int" >        2 </v>
  <v type="int" >        3 </v>
  <v type="int" >        4 </v>
  <v type="int" >        6 </v>
  <v type="int" >        5 </v>
  <v type="int" >        7 </v>
  <v type="int" >        8 </v>
  <v type="int" >        9 </v>
  <v type="int" >       10 </v>
  <v type="int" >       11 </v>
  <v type="int" >       12 </v>
 </varray>
 <kpoints>
  <generation param="Gamma">
   <v type="int" name="divisions">       6        1        4 </v>
   <v name="usershift">      0.00000000       0.00000000       0.00000000 </v>
   <v name="genvec1">      0.16666667       0.00000000       0.00000000 </v>
   <v name="genvec2">      0.00000000       1.00000000       0.00000000 </v>
   <v name="genvec3">      0.00000000       0.00000000       0.25000000 </v>
   <v name="shift">      0.00000000       0.00000000       0.00000000 </v>
  </generation>
  <varray name="kpointlist" >
   <v>       0.00000000       0.00000000       0.00000000 </v>
   <v>       0.16666667       0.00000000       0.00000000 </v>
   <v>       0.33333333       0.00000000       0.00000000 </v>
   <v>       0.50000000       0.00000000       0.00000000 </v>
   <v>       0.00000000       0.00000000       0.25000000 </v>
   <v>       0.16666667       0.00000000       0.25000000 </v>
   <v>       0.33333333       0.00000000       0.25000000 </v>
   <v>       0.50000000       0.00000000       0.25000000 </v>
   <v>       0.00000000       0.00000000       0.50000000 </v>
   <v>       0.16666667       0.00000000       0.50000000 </v>
   <v>       0.33333333       0.00000000       0.50000000 </v>
   <v>       0.50000000       0.00000000       0.50000000 </v>
  </varray>
  <varray name="weights" >
   <v>       0.04166667 </v>
   <v>       0.08333333 </v>
   <v>       0.08333333 </v>
   <v>       0.04166667 </v>
   <v>       0.08333333 </v>
   <v>       0.16666667 </v>
   <v>       0.16666667 </v>
   <v>       0.08333333 </v>
   <v>       0.04166667 </v>
   <v>       0.08333333 </v>
   <v>       0.08333333 </v>
   <v>       0.04166667 </v>
  </varray>
 </kpoints>
 <parameters>
  <separator name="general" >
   <i type="string" name="SYSTEM">Generic Input</i>
   <i type="logical" name="LCOMPAT"> F  </i>
  </separator>
  <separator name="electronic" >
   <i type="string" name="PREC">normal</i>
   <i name="ENMAX">    550.00000000</i>
   <i name="ENAUG">    342.92400000</i>
   <i name="EDIFF">      0.00001000</i>
   <i type="int" name="IALGO">    38</i>
   <i type="int" name="IWAVPR">    11</i>
   <i type="int" name="NBANDS">    40</i>
   <i name="NELECT">     60.00000000</i>
   <i type="int" name="TURBO">     0</i>
   <i type="int" name="IRESTART">     0</i>
   <i type="int" name="NREBOOT">     0</i>
   <i type="int" name="NMIN">     0</i>
   <i name="EREF">      0.00000000</i>
   <separator name="electronic smearing" >
    <i type="int" name="ISMEAR">     0</i>
    <i name="SIGMA">      0.01000000</i>
    <i name="KSPACING">      0.50000000</i>
    <i type="logical" name="KGAMMA"> T  </i>
   </separator>
   <separator name="electronic projectors" >
    <i type="logical" name="LREAL"> F  </i>
    <v name="ROPT">      0.00000000</v>
    <i type="int" name="LMAXPAW">  -100</i>
    <i type="int" name="LMAXMIX">     2</i>
    <i type="logical" name="NLSPLINE"> F  </i>
   </separator>
   <separator name="electronic startup" >
    <i type="int" name="ISTART">     0</i>
    <i type="int" name="ICHARG">     2</i>
    <i type="int" name="INIWAV">     1</i>
   </separator>
   <separator name="electronic spin" >
    <i type="int" name="ISPIN">     1</i>
    <i type="logical" name="LNONCOLLINEAR"> F  </i>
    <v name="MAGMOM">      1.00000000      1.00000000      1.00000000      1.00000000      1.00000000      1.00000000      1.00000000      1.00000000      1.00000000      1.00000000      1.00000000      1.00000000</v>
    <i name="NUPDOWN">     -1.00000000</i>
    <i type="logical" name="LSORBIT"> F  </i>
    <v name="SAXIS">      0.00000000      0.00000000      1.00000000</v>
    <i type="logical" name="LSPIRAL"> F  </i>
    <v name="QSPIRAL">      0.00000000      0.00000000      0.00000000</v>
    <i type="logical" name="LZEROZ"> F  </i>
   </separator>
   <separator name="electronic exchange-correlation" >
    <i type="logical" name="LASPH"> T  </i>
    <i type="logical" name="LMETAGGA"> F  </i>
   </separator>
   <separator name="electronic convergence" >
    <i type="int" name="NELM">   200</i>
    <i type="int" name="NELMDL">     0</i>
    <i type="int" name="NELMIN">     2</i>
    <i name="ENINI">    550.00000000</i>
    <separator name="electronic convergence detail" >
     <i type="logical" name="LDIAG"> T  </i>
     <i type="logical" name="LSUBROT"> F  </i>
     <i name="WEIMIN">      0.00000000</i>
     <i name="EBREAK">      0.00000006</i>
     <i name="DEPER">      0.30000000</i>
     <i type="int" name="NRMM">     4</i>
     <i name="TIME">      0.40000000</i>
    </separator>
   </separator>
   <separator name="electronic mixer" >
    <i name="AMIX">      0.40000000</i>
    <i name="BMIX">      1.00000000</i>
    <i name="AMIN">      0.10000000</i>
    <i name="AMIX_MAG">      1.60000000</i>
    <i name="BMIX_MAG">      1.00000000</i>
    <separator name="electronic mixer details" >
     <i type="int" name="IMIX">     4</i>
     <i type="logical" name="MIXFIRST"> F  </i>
     <i type="int" name="MAXMIX">   -45</i>
     <i name="WC">    100.00000000</i>
     <i type="int" name="INIMIX">     1</i>
     <i type="int" name="MIXPRE">     1</i>
     <i type="int" name="MREMOVE">     5</i>
    </separator>
   </separator>
   <separator name="electronic dipolcorrection" >
    <i type="logical" name="LDIPOL"> F  </i>
    <i type="logical" name="LMONO"> F  </i>
    <i type="int" name="IDIPOL">     0</i>
    <i name="EPSILON">      1.00000000</i>
    <v name="DIPOL">   -100.00000000   -100.00000000   -100.00000000</v>
    <i name="EFIELD">      0.00000000</i>
   </separator>
  </separator>
  <separator name="grids" >
   <i type="int" name="NGX">    20</i>
   <i type="int" name="NGY">   192</i>
   <i type="int" name="NGZ">    28</i>
   <i type="int" name="NGXF">    40</i>
   <i type="int" name="NGYF">   384</i>
   <i type="int" name="NGZF">    56</i>
   <i type="logical" name="ADDGRID"> F  </i>
  </separator>
  <separator name="ionic" >
   <i type="int" name="NSW">     0</i>
   <i type="int" name="IBRION">    -1</i>
   <i type="int" name="MDALGO">     0</i>
   <i type="int" name="ISIF">     3</i>
   <i name="PSTRESS">      0.00000000</i>
   <i name="EDIFFG">     -0.02000000</i>
   <i type="int" name="NFREE">     1</i>
   <i name="POTIM">      0.50000000</i>
   <i name="SMASS">     -3.00000000</i>
   <i name="SCALEE">      1.00000000</i>
  </separator>
  <separator name="ionic md" >
   <i name="TEBEG">      0.00010000</i>
   <i name="TEEND">      0.00010000</i>
   <i type="int" name="NBLOCK">     1</i>
   <i type="int" name="KBLOCK">     1</i>
   <i type="int" name="NPACO">   256</i>
   <i name="APACO">     16.00000000</i>
  </separator>
  <separator name="symmetry" >
   <i type="int" name="ISYM">     2</i>
   <i name="SYMPREC">      0.00001000</i>
  </separator>
  <separator name="dos" >
   <i type="int" name="LORBIT">    11</i>
   <v name="RWIGS">     -1.00000000</v>
   <i type="int" name="NEDOS">  2000</i>
   <i name="EMIN">     10.00000000</i>
   <i name="EMAX">    -10.00000000</i>
   <i name="EFERMI">      0.00000000</i>
  </separator>
  <separator name="writing" >
   <i type="int" name="NWRITE">     2</i>
   <i type="logical" name="LWAVE"> T  </i>
   <i type="logical" name="LDOWNSAMPLE"> F  </i>
   <i type="logical" name="LCHARG"> T  </i>
   <i type="logical" name="LPARD"> F  </i>
   <i type="logical" name="LVTOT"> F  </i>
   <i type="logical" name="LVHAR"> T  </i>
   <i type="logical" name="LELF"> F  </i>
   <i type="logical" name="LOPTICS"> F  </i>
   <v name="STM">      0.00000000      0.00000000      0.00000000      0.00000000      0.00000000      0.00000000      0.00000000</v>
  </separator>
  <separator name="performance" >
   <i type="int" name="NPAR">     4</i>
   <i type="int" name="NSIM">     4</i>
   <i type="int" name="NBLK">    -1</i>
   <i type="logical" name="LPLANE"> T  </i>
   <i type="logical" name="LSCALAPACK"> T  </i>
   <i type="logical" name="LSCAAWARE"> F  </i>
   <i type="logical" name="LSCALU"> F  </i>
   <i type="logical" name="LASYNC"> F  </i>
   <i type="logical" name="LORBITALREAL"> F  </i>
  </separator>
  <separator name="miscellaneous" >
   <i type="int" name="IDIOT">     3</i>
   <i type="int" name="ISPECIAL">     0</i>
   <i type="logical" name="LMUSIC"> F  </i>
   <v name="POMASS">     30.97400000</v>
   <v name="DARWINR">      0.00000000</v>
   <v name="DARWINV">      1.00000000</v>
   <i type="logical" name="LCORR"> T  </i>
  </separator>
  <i type="logical" name="GGA_COMPAT"> T  </i>
  <i type="logical" name="LBERRY"> F  </i>
  <i type="int" name="ICORELEVEL">     1</i>
  <i type="int" name="CLNT">     1</i>
  <i type="int" name="CLN">     1</i>
  <i type="int" name="CLL">     0</i>
  <i name="CLZ">      0.00000000</i>
  <i type="logical" name="LDAU"> F  </i>
  <i type="int" name="I_CONSTRAINED_M">     0</i>
  <separator name="electronic exchange-correlation" >
   <i type="string" name="GGA">PE</i>
   <i type="int" name="VOSKOWN">     0</i>
   <i type="logical" name="LHFCALC"> F  </i>
   <i type="string" name="PRECFOCK"></i>
   <i type="logical" name="LSYMGRAD"> F  </i>
   <i type="logical" name="LHFONE"> F  </i>
   <i type="logical" name="LRHFCALC"> F  </i>
   <i type="logical" name="LTHOMAS"> F  </i>
   <i type="logical" name="LMODELHF"> F  </i>
   <i name="ENCUT4O">     -1.00000000</i>
   <i type="int" name="EXXOEP">     0</i>
   <i type="int" name="FOURORBIT">     0</i>
   <i name="AEXX">      0.00000000</i>
   <i name="HFALPHA">      0.00000000</i>
   <i name="MCALPHA">      0.00000000</i>
   <i name="ALDAX">      1.00000000</i>
   <i name="AGGAX">      1.00000000</i>
   <i name="ALDAC">      1.00000000</i>
   <i name="AGGAC">      1.00000000</i>
   <i type="int" name="NKREDX">     1</i>
   <i type="int" name="NKREDY">     1</i>
   <i type="int" name="NKREDZ">     1</i>
   <i type="logical" name="SHIFTRED"> F  </i>
   <i type="logical" name="ODDONLY"> F  </i>
   <i type="logical" name="EVENONLY"> F  </i>
   <i type="int" name="LMAXFOCK">     0</i>
   <i type="int" name="NMAXFOCKAE">     0</i>
   <i type="logical" name="LFOCKAEDFT"> F  </i>
   <i name="HFSCREEN">      0.00000000</i>
   <i name="HFSCREENC">      0.00000000</i>
   <i type="int" name="NBANDSGWLOW">     0</i>
  </separator>
  <separator name="vdW DFT" >
   <i type="logical" name="LUSE_VDW"> F  </i>
   <i name="Zab_VDW">     -0.84910000</i>
   <i name="PARAM1">      0.12340000</i>
   <i name="PARAM2">      1.00000000</i>
   <i name="PARAM3">      0.00000000</i>
  </separator>
  <separator name="model GW" >
   <i type="int" name="MODEL_GW">     0</i>
   <i name="MODEL_EPS0">     23.83979645</i>
   <i name="MODEL_ALPHA">      1.00000000</i>
  </separator>
  <separator name="linear response parameters" >
   <i type="logical" name="LEPSILON"> F  </i>
   <i type="logical" name="LRPA"> F  </i>
   <i type="logical" name="LNABLA"> F  </i>
   <i type="logical" name="LVEL"> F  </i>
   <i type="int" name="KINTER">     0</i>
   <i name="CSHIFT">      0.10000000</i>
   <i name="OMEGAMAX">     -1.00000000</i>
   <i name="DEG_THRESHOLD">      0.00200000</i>
   <i name="RTIME">     -0.10000000</i>
   <i name="WPLASMAI">      0.00000000</i>
   <v name="DFIELD">      0.00000000      0.00000000      0.00000000</v>
   <v name="WPLASMA">      0.00000000      0.00000000      0.00000000      0.00000000      0.00000000      0.00000000      0.00000000      0.00000000      0.00000000</v>
  </separator>
  <separator name="orbital magnetization" >
   <i type="logical" name="NUCIND"> F  </i>
   <v name="MAGPOS">      0.00000000      0.00000000      0.00000000</v>
   <i type="logical" name="LNICSALL"> T  </i>
   <i type="logical" name="ORBITALMAG"> F  </i>
   <i type="logical" name="LMAGBLOCH"> F  </i>
   <i type="logical" name="LCHIMAG"> F  </i>
   <i type="logical" name="LGAUGE"> T  </i>
   <i type="int" name="MAGATOM">     0</i>
   <v name="MAGDIPOL">      0.00000000      0.00000000      0.00000000</v>
   <v name="AVECCONST">      0.00000000      0.00000000      0.00000000</v>
  </separator>
  <separator name="response functions" >
   <i type="logical" name="LADDER"> F  </i>
   <i type="logical" name="LRPAFORCE"> F  </i>
   <i type="logical" name="LFXC"> F  </i>
   <i type="logical" name="LHARTREE"> T  </i>
   <i type="int" name="IBSE">     0</i>
   <v type="int" name="KPOINT">    -1     0     0     0</v>
   <i type="logical" name="LTCTE"> F  </i>
   <i type="logical" name="LTETE"> F  </i>
   <i type="logical" name="LTRIPLET"> F  </i>
   <i type="logical" name="LFXCEPS"> F  </i>
   <i type="logical" name="LFXHEG"> F  </i>
   <i type="int" name="NATURALO">     2</i>
   <i type="logical" name="L2ORDER"> F  </i>
   <i type="logical" name="LMP2LT"> F  </i>
   <i type="logical" name="LUSEW"> F  </i>
   <i name="ENCUTGW">     -2.00000000</i>
   <i name="ENCUTGWSOFT">     -2.00000000</i>
   <i name="ENCUTLF">     -1.00000000</i>
   <i type="int" name="LMAXMP2">    -1</i>
   <i name="SCISSOR">      0.00000000</i>
   <i type="int" name="NOMEGA">     0</i>
   <i type="int" name="NOMEGAR">     0</i>
   <i type="int" name="NBANDSGW">    -1</i>
   <i type="int" name="NBANDSO">    -1</i>
   <i type="int" name="NBANDSV">    -1</i>
   <i type="int" name="NELM">   200</i>
   <i type="int" name="NELMHF">     1</i>
   <i type="int" name="DIM">     3</i>
   <i type="int" name="ANTIRES">     0</i>
   <i name="OMEGAMAX">    -30.00000000</i>
   <i name="OMEGAMIN">    -30.00000000</i>
   <i name="OMEGATL">   -200.00000000</i>
   <i type="int" name="OMEGAGRID">   140</i>
   <i name="CSHIFT">     -0.10000000</i>
   <i type="logical" name="SELFENERGY"> F  </i>
   <i type="logical" name="LSPECTRAL"> F  </i>
   <i type="logical" name="LSPECTRALGW"> F  </i>
   <i type="logical" name="LSINGLES"> F  </i>
   <i type="logical" name="LFERMIGW"> F  </i>
   <i type="logical" name="ODDONLYGW"> F  </i>
   <i type="logical" name="EVENONLYGW"> F  </i>
   <i type="int" name="NKREDLFX">     1</i>
   <i type="int" name="NKREDLFY">     1</i>
   <i type="int" name="NKREDLFZ">     1</i>
   <i type="int" name="MAXMEM">  2800</i>
   <i type="int" name="TELESCOPE">     0</i>
   <i type="int" name="TAUPAR">     1</i>
   <i type="int" name="OMEGAPAR">    -1</i>
   <i name="LAMBDA">      1.00000000</i>
  </separator>
  <separator name="External order field" >
   <i name="OFIELD_KAPPA">      0.00000000</i>
   <v name="OFIELD_K">      0.00000000      0.00000000      0.00000000</v>
   <i name="OFIELD_Q6_NEAR">      0.00000000</i>
   <i name="OFIELD_Q6_FAR">      0.00000000</i>
   <i name="OFIELD_A">      0.00000000</i>
  </separator>
 </parameters>
 <atominfo>
  <atoms>      12 </atoms>
  <types>       1 </types>
  <array name="atoms" >
   <dimension dim="1">ion</dimension>
   <field type="string">element</field>
   <field type="int">atomtype</field>
   <set>
    <rc><c>P </c><c>   1</c></rc>
    <rc><c>P </c><c>   1</c></rc>
    <rc><c>P </c><c>   1</c></rc>
    <rc><c>P </c><c>   1</c></rc>
    <rc><c>P </c><c>   1</c></rc>
    <rc><c>P </c><c>   1</c></rc>
    <rc><c>P </c><c>   1</c></rc>
    <rc><c>P </c><c>   1</c></rc>
    <rc><c>P </c><c>   1</c></rc>
    <rc><c>P </c><c>   1</c></rc>
    <rc><c>P </c><c>   1</c></rc>
    <rc><c>P </c><c>   1</c></rc>
   </set>
  </array>
  <array name="atomtypes" >
   <dimension dim="1">type</dimension>
   <field type="int">atomspertype</field>
   <field type="string">element</field>
   <field>mass</field>
   <field>valence</field>
   <field type="string">pseudopotential</field>
   <set>
    <rc><c>  12</c><c>P </c><c>     30.97400000</c><c>      5.00000000</c><c>  PAW_PBE P 06Sep2000                   </c></rc>
   </set>
  </array>
 </atominfo>
 <structure name="initialpos" >
  <crystal>
   <varray name="basis" >
    <v>       3.34288600       0.00000000       0.00000000 </v>
    <v>       0.00000000      32.60240900       0.00000000 </v>
    <v>       0.00000000       0.00000000       4.37483100 </v>
   </varray>
   <i name="volume">    476.79592902 </i>
   <varray name="rec_basis" >
    <v>       0.29914272       0.00000000       0.00000000 </v>
    <v>       0.00000000       0.03067258       0.00000000 </v>
    <v>       0.00000000       0.00000000       0.22858026 </v>
   </varray>
  </crystal>
  <varray name="positions" >
   <v>       0.00000000       0.30672600       0.91892400 </v>
   <v>       0.50000000       0.30672600       0.58107600 </v>
   <v>       0.00000000       0.37246700       0.08107600 </v>
   <v>       0.50000000       0.37246700       0.41892400 </v>
   <v>       0.50000000       0.46712900       0.91892400 </v>
   <v>       0.00000000       0.46712900       0.58107600 </v>
   <v>       0.50000000       0.53287100       0.08107600 </v>
   <v>       0.00000000       0.53287100       0.41892400 </v>
   <v>       0.00000000       0.62753300       0.91892400 </v>
   <v>       0.50000000       0.62753300       0.58107600 </v>
   <v>       0.00000000       0.69327400       0.08107600 </v>
   <v>       0.50000000       0.69327400       0.41892400 </v>
  </varray>
 </structure>
 <calculation>
  <scstep>
   <time name="dav">    0.66    0.66</time>
   <time name="total">    0.77    0.77</time>
   <energy>
    <i name="alphaZ">     30.28014394 </i>
    <i name="ewald">  14973.24208224 </i>
    <i name="hartreedc"> -16928.93300519 </i>
    <i name="XCdc">     40.33410131 </i>
    <i name="pawpsdc">   1677.12035881 </i>
    <i name="pawaedc">  -1579.18296132 </i>
    <i name="eentropy">     -0.00033021 </i>
    <i name="bandstr">     62.00883977 </i>
    <i name="atom">   2112.50643729 </i>
    <i name="e_fr_energy">    387.37566663 </i>
    <i name="e_wo_entrp">    387.37599684 </i>
    <i name="e_0_energy">    387.37583174 </i>
   </energy>
  </scstep>
  <scstep>
   <time name="dav">    0.83    0.83</time>
   <time name="total">    0.83    0.84</time>
   <energy>
    <i name="e_fr_energy">    -19.91803406 </i>
    <i name="e_wo_entrp">    -19.91786666 </i>
    <i name="e_0_energy">    -19.91795036 </i>
   </energy>
  </scstep>
  <scstep>
   <time name="dav">    0.74    0.74</time>
   <time name="total">    0.74    0.74</time>
   <energy>
    <i name="e_fr_energy">    -63.20186085 </i>
    <i name="e_wo_entrp">    -63.20186085 </i>
    <i name="e_0_energy">    -63.20186085 </i>
   </energy>
  </scstep>
  <scstep>
   <time name="dav">    0.84    0.84</time>
   <time name="total">    0.84    0.85</time>
   <energy>
    <i name="e_fr_energy">    -64.76418980 </i>
    <i name="e_wo_entrp">    -64.76418980 </i>
    <i name="e_0_energy">    -64.76418980 </i>
   </energy>
  </scstep>
  <scstep>
   <time name="dav">    0.90    0.91</time>
   <time name="total">    0.95    0.95</time>
   <energy>
    <i name="e_fr_energy">    -64.81343460 </i>
    <i name="e_wo_entrp">    -64.81343460 </i>
    <i name="e_0_energy">    -64.81343460 </i>
   </energy>
  </scstep>
  <scstep>
   <time name="dav">    0.77    0.77</time>
   <time name="total">    0.90    0.91</time>
   <energy>
    <i name="e_fr_energy">    -64.48840076 </i>
    <i name="e_wo_entrp">    -64.48840076 </i>
    <i name="e_0_energy">    -64.48840076 </i>
   </energy>
  </scstep>
  <scstep>
   <time name="dav">    0.76    0.76</time>
   <time name="total">    0.89    0.90</time>
   <energy>
    <i name="e_fr_energy">    -64.33932155 </i>
    <i name="e_wo_entrp">    -64.33932130 </i>
    <i name="e_0_energy">    -64.33932142 </i>
   </energy>
  </scstep>
  <scstep>
   <time name="dav">    0.77    0.77</time>
   <time name="total">    0.91    0.91</time>
   <energy>
    <i name="e_fr_energy">    -64.33902774 </i>
    <i name="e_wo_entrp">    -64.33902768 </i>
    <i name="e_0_energy">    -64.33902771 </i>
   </energy>
  </scstep>
  <scstep>
   <time name="dav">    0.91    0.91</time>
   <time name="total">    1.04    1.05</time>
   <energy>
    <i name="e_fr_energy">    -64.33898649 </i>
    <i name="e_wo_entrp">    -64.33898643 </i>
    <i name="e_0_energy">    -64.33898646 </i>
   </energy>
  </scstep>
  <scstep>
   <time name="dav">    0.76    0.76</time>
   <time name="total">    0.89    0.90</time>
   <energy>
    <i name="e_fr_energy">    -64.33874231 </i>
    <i name="e_wo_entrp">    -64.33874228 </i>
    <i name="e_0_energy">    -64.33874230 </i>
   </energy>
  </scstep>
  <scstep>
   <time name="dav">    0.77    0.78</time>
   <time name="total">    0.91    0.91</time>
   <energy>
    <i name="e_fr_energy">    -64.33848145 </i>
    <i name="e_wo_entrp">    -64.33848140 </i>
    <i name="e_0_energy">    -64.33848143 </i>
   </energy>
  </scstep>
  <scstep>
   <time name="dav">    0.78    0.78</time>
   <time name="total">    0.92    0.92</time>
   <energy>
    <i name="e_fr_energy">    -64.33856139 </i>
    <i name="e_wo_entrp">    -64.33856133 </i>
    <i name="e_0_energy">    -64.33856136 </i>
   </energy>
  </scstep>
  <scstep>
   <time name="dav">    0.71    0.71</time>
   <time name="total">    0.85    0.85</time>
   <energy>
    <i name="e_fr_energy">    -64.33877139 </i>
    <i name="e_wo_entrp">    -64.33877133 </i>
    <i name="e_0_energy">    -64.33877136 </i>
   </energy>
  </scstep>
  <scstep>
   <time name="dav">    0.67    0.67</time>
   <time name="total">    0.81    0.81</time>
   <energy>
    <i name="e_fr_energy">    -64.33892547 </i>
    <i name="e_wo_entrp">    -64.33892541 </i>
    <i name="e_0_energy">    -64.33892544 </i>
   </energy>
  </scstep>
  <scstep>
   <time name="dav">    0.56    0.57</time>
   <time name="total">    0.72    0.72</time>
   <energy>
    <i name="e_fr_energy">    -64.33898576 </i>
    <i name="e_wo_entrp">    -64.33898569 </i>
    <i name="e_0_energy">    -64.33898573 </i>
   </energy>
  </scstep>
  <scstep>
   <time name="dav">    0.65    0.65</time>
   <time name="total">    0.78    0.78</time>
   <energy>
    <i name="e_fr_energy">    -64.33921396 </i>
    <i name="e_wo_entrp">    -64.33921390 </i>
    <i name="e_0_energy">    -64.33921393 </i>
   </energy>
  </scstep>
  <scstep>
   <time name="dav">    0.57    0.57</time>
   <time name="total">    0.71    0.71</time>
   <energy>
    <i name="e_fr_energy">    -64.33923425 </i>
    <i name="e_wo_entrp">    -64.33923418 </i>
    <i name="e_0_energy">    -64.33923421 </i>
   </energy>
  </scstep>
  <scstep>
   <time name="dav">    0.56    0.56</time>
   <time name="total">    0.69    0.69</time>
   <energy>
    <i name="e_fr_energy">    -64.33926854 </i>
    <i name="e_wo_entrp">    -64.33926848 </i>
    <i name="e_0_energy">    -64.33926851 </i>
   </energy>
  </scstep>
  <scstep>
   <time name="dav">    0.58    0.58</time>
   <time name="total">    0.72    0.72</time>
   <energy>
    <i name="e_fr_energy">    -64.33929263 </i>
    <i name="e_wo_entrp">    -64.33929256 </i>
    <i name="e_0_energy">    -64.33929260 </i>
   </energy>
  </scstep>
  <scstep>
   <time name="dav">    0.54    0.55</time>
   <time name="total">    0.72    0.72</time>
   <energy>
    <i name="alphaZ">     30.28014394 </i>
    <i name="ewald">  14973.24208224 </i>
    <i name="hartreedc"> -16968.24424376 </i>
    <i name="XCdc">     43.14258348 </i>
    <i name="pawpsdc">   6290.18352955 </i>
    <i name="pawaedc">  -6193.16476237 </i>
    <i name="eentropy">     -0.00000007 </i>
    <i name="bandstr">   -352.28506719 </i>
    <i name="atom">   2112.50643729 </i>
    <i name="e_fr_energy">    -64.33929688 </i>
    <i name="e_wo_entrp">    -64.33929682 </i>
    <i name="e_0_energy">    -64.33929685 </i>
   </energy>
  </scstep>
  <structure>
   <crystal>
    <varray name="basis" >
     <v>       3.34288600       0.00000000       0.00000000 </v>
     <v>       0.00000000      32.60240900       0.00000000 </v>
     <v>       0.00000000       0.00000000       4.37483100 </v>
    </varray>
    <i name="volume">    476.79592902 </i>
    <varray name="rec_basis" >
     <v>       0.29914272       0.00000000       0.00000000 </v>
     <v>       0.00000000       0.03067258       0.00000000 </v>
     <v>       0.00000000       0.00000000       0.22858026 </v>
    </varray>
   </crystal>
   <varray name="positions" >
    <v>       0.00000000       0.30672600       0.91892400 </v>
    <v>       0.50000000       0.30672600       0.58107600 </v>
    <v>       0.00000000       0.37246700       0.08107600 </v>
    <v>       0.50000000       0.37246700       0.41892400 </v>
    <v>       0.50000000       0.46712900       0.91892400 </v>
    <v>       0.00000000       0.46712900       0.58107600 </v>
    <v>       0.50000000       0.53287100       0.08107600 </v>
    <v>       0.00000000       0.53287100       0.41892400 </v>
    <v>       0.00000000       0.62753300       0.91892400 </v>
    <v>       0.50000000       0.62753300       0.58107600 </v>
    <v>       0.00000000       0.69327400       0.08107600 </v>
    <v>       0.50000000       0.69327400       0.41892400 </v>
   </varray>
  </structure>
  <varray name="forces" >
   <v>       0.00000000       0.08101281      -0.03806999 </v>
   <v>       0.00000000       0.08101281       0.03806999 </v>
   <v>       0.00000000      -0.07718122      -0.02188020 </v>
   <v>      -0.00000000      -0.07718122       0.02188020 </v>
   <v>       0.00000000       0.03800848       0.00288441 </v>
   <v>       0.00000000       0.03800848      -0.00288441 </v>
   <v>       0.00000000      -0.03800848      -0.00288441 </v>
   <v>       0.00000000      -0.03800848       0.00288441 </v>
   <v>       0.00000000       0.07718122       0.02188020 </v>
   <v>       0.00000000       0.07718122      -0.02188020 </v>
   <v>       0.00000000      -0.08101281       0.03806999 </v>
   <v>      -0.00000000      -0.08101281      -0.03806999 </v>
  </varray>
  <varray name="stress" >
   <v>       0.90901565       0.00000000       0.00000000 </v>
   <v>       0.00000000      -3.23200849       0.00000000 </v>
   <v>       0.00000000       0.00000000       4.11777279 </v>
  </varray>
  <energy>
   <i name="e_fr_energy">    -66.51323640 </i>
   <i name="e_wo_entrp">    -66.51323637 </i>
   <i name="e_0_energy">     -0.00000007 </i>
  </energy>
  <time name="totalsc">   18.93   19.00</time>
  <eigenvalues>
   <array>
    <dimension dim="1">band</dimension>
    <dimension dim="2">kpoint</dimension>
    <dimension dim="3">spin</dimension>
    <field>eigene</field>
    <field>occ</field>
    <set>
     <set comment="spin 1">
      <set comment="kpoint 1">
       <r>  -14.8538    1.0000 </r>
       <r>  -14.7331    1.0000 </r>
       <r>  -14.6646    1.0000 </r>
       <r>  -12.3727    1.0000 </r>
       <r>  -12.1265    1.0000 </r>
       <r>  -11.9470    1.0000 </r>
       <r>   -8.6057    1.0000 </r>
       <r>   -8.5211    1.0000 </r>
       <r>   -8.4910    1.0000 </r>
       <r>   -5.9234    1.0000 </r>
       <r>   -5.5444    1.0000 </r>
       <r>   -5.1262    1.0000 </r>
       <r>   -4.5042    1.0000 </r>
       <r>   -4.5041    1.0000 </r>
       <r>   -4.1863    1.0000 </r>
       <r>   -4.1422    1.0000 </r>
       <r>   -3.9949    1.0000 </r>
       <r>   -3.9207    1.0000 </r>
       <r>   -3.3932    1.0000 </r>
       <r>   -3.2920    1.0000 </r>
       <r>   -3.2424    1.0000 </r>
       <r>   -1.8791    1.0000 </r>
       <r>   -1.7359    1.0000 </r>
       <r>   -1.6237    1.0000 </r>
       <r>   -1.5885    1.0000 </r>
       <r>   -1.5036    1.0000 </r>
       <r>   -1.1070    1.0000 </r>
       <r>   -0.2488    1.0000 </r>
       <r>    0.3552    1.0000 </r>
       <r>    0.9105    1.0000 </r>
       <r>    0.9700    0.0000 </r>
       <r>    1.4978    0.0000 </r>
       <r>    1.5234    0.0000 </r>
       <r>    1.6980    0.0000 </r>
       <r>    1.7058    0.0000 </r>
       <r>    1.8615    0.0000 </r>
       <r>    2.7307    0.0000 </r>
       <r>    2.9015    0.0000 </r>
       <r>    2.9721    0.0000 </r>
       <r>    3.6905    0.0000 </r>
      </set>
      <set comment="kpoint 2">
       <r>  -14.5303    1.0000 </r>
       <r>  -14.4108    1.0000 </r>
       <r>  -14.3436    1.0000 </r>
       <r>  -12.0360    1.0000 </r>
       <r>  -11.7912    1.0000 </r>
       <r>  -11.6128    1.0000 </r>
       <r>   -8.8985    1.0000 </r>
       <r>   -8.8368    1.0000 </r>
       <r>   -8.8308    1.0000 </r>
       <r>   -5.6504    1.0000 </r>
       <r>   -5.2791    1.0000 </r>
       <r>   -4.9718    1.0000 </r>
       <r>   -4.8902    1.0000 </r>
       <r>   -4.8840    1.0000 </r>
       <r>   -4.8522    1.0000 </r>
       <r>   -4.4277    1.0000 </r>
       <r>   -4.3544    1.0000 </r>
       <r>   -4.3435    1.0000 </r>
       <r>   -4.2180    1.0000 </r>
       <r>   -3.8735    1.0000 </r>
       <r>   -3.7294    1.0000 </r>
       <r>   -2.6609    1.0000 </r>
       <r>   -2.5102    1.0000 </r>
       <r>   -2.3451    1.0000 </r>
       <r>   -1.7410    1.0000 </r>
       <r>   -1.4695    1.0000 </r>
       <r>   -0.9671    1.0000 </r>
       <r>   -0.2128    1.0000 </r>
       <r>    0.1878    1.0000 </r>
       <r>    0.4579    1.0000 </r>
       <r>    1.2533    0.0000 </r>
       <r>    1.6580    0.0000 </r>
       <r>    1.8822    0.0000 </r>
       <r>    2.3397    0.0000 </r>
       <r>    2.5518    0.0000 </r>
       <r>    2.5760    0.0000 </r>
       <r>    3.7505    0.0000 </r>
       <r>    3.8764    0.0000 </r>
       <r>    3.9807    0.0000 </r>
       <r>    4.2593    0.0000 </r>
      </set>
      <set comment="kpoint 3">
       <r>  -13.5771    1.0000 </r>
       <r>  -13.4618    1.0000 </r>
       <r>  -13.3990    1.0000 </r>
       <r>  -11.0344    1.0000 </r>
       <r>  -10.7944    1.0000 </r>
       <r>  -10.6196    1.0000 </r>
       <r>  -10.2409    1.0000 </r>
       <r>  -10.1612    1.0000 </r>
       <r>  -10.1363    1.0000 </r>
       <r>   -7.2204    1.0000 </r>
       <r>   -7.0238    1.0000 </r>
       <r>   -6.8860    1.0000 </r>
       <r>   -4.9298    1.0000 </r>
       <r>   -4.9052    1.0000 </r>
       <r>   -4.8484    1.0000 </r>
       <r>   -4.8393    1.0000 </r>
       <r>   -4.6041    1.0000 </r>
       <r>   -4.3149    1.0000 </r>
       <r>   -3.4252    1.0000 </r>
       <r>   -3.1558    1.0000 </r>
       <r>   -3.0329    1.0000 </r>
       <r>   -2.6848    1.0000 </r>
       <r>   -2.3950    1.0000 </r>
       <r>   -2.1609    1.0000 </r>
       <r>   -1.7899    1.0000 </r>
       <r>   -1.5206    1.0000 </r>
       <r>   -1.1891    1.0000 </r>
       <r>   -0.8924    1.0000 </r>
       <r>   -0.7522    1.0000 </r>
       <r>   -0.6889    1.0000 </r>
       <r>    1.1119    0.0000 </r>
       <r>    1.1734    0.0000 </r>
       <r>    1.4351    0.0000 </r>
       <r>    2.0743    0.0000 </r>
       <r>    2.2859    0.0000 </r>
       <r>    2.6035    0.0000 </r>
       <r>    2.6466    0.0000 </r>
       <r>    2.6626    0.0000 </r>
       <r>    2.6701    0.0000 </r>
       <r>    2.9514    0.0000 </r>
      </set>
      <set comment="kpoint 4">
       <r>  -12.0666    1.0000 </r>
       <r>  -12.0666    1.0000 </r>
       <r>  -11.9613    1.0000 </r>
       <r>  -11.9613    1.0000 </r>
       <r>  -11.9091    1.0000 </r>
       <r>  -11.9091    1.0000 </r>
       <r>   -9.3990    1.0000 </r>
       <r>   -9.3990    1.0000 </r>
       <r>   -9.1700    1.0000 </r>
       <r>   -9.1700    1.0000 </r>
       <r>   -9.0041    1.0000 </r>
       <r>   -9.0041    1.0000 </r>
       <r>   -4.4689    1.0000 </r>
       <r>   -4.4689    1.0000 </r>
       <r>   -4.3342    1.0000 </r>
       <r>   -4.3342    1.0000 </r>
       <r>   -4.2887    1.0000 </r>
       <r>   -4.2887    1.0000 </r>
       <r>   -2.4667    1.0000 </r>
       <r>   -2.4667    1.0000 </r>
       <r>   -2.3926    1.0000 </r>
       <r>   -2.3926    1.0000 </r>
       <r>   -2.3922    1.0000 </r>
       <r>   -2.3922    1.0000 </r>
       <r>   -2.0097    1.0000 </r>
       <r>   -2.0097    1.0000 </r>
       <r>   -1.7388    1.0000 </r>
       <r>   -1.7388    1.0000 </r>
       <r>   -1.4868    1.0000 </r>
       <r>   -1.4868    1.0000 </r>
       <r>    1.6199    0.0000 </r>
       <r>    1.6199    0.0000 </r>
       <r>    1.6326    0.0000 </r>
       <r>    1.6326    0.0000 </r>
       <r>    1.7145    0.0000 </r>
       <r>    1.7145    0.0000 </r>
       <r>    2.1558    0.0000 </r>
       <r>    2.1574    0.0000 </r>
       <r>    2.1927    0.0000 </r>
       <r>    2.1965    0.0000 </r>
      </set>
      <set comment="kpoint 5">
       <r>  -14.5023    1.0000 </r>
       <r>  -14.3889    1.0000 </r>
       <r>  -14.3281    1.0000 </r>
       <r>  -12.5952    1.0000 </r>
       <r>  -12.4609    1.0000 </r>
       <r>  -12.4005    1.0000 </r>
       <r>   -9.0048    1.0000 </r>
       <r>   -8.8477    1.0000 </r>
       <r>   -8.7254    1.0000 </r>
       <r>   -6.9110    1.0000 </r>
       <r>   -6.6379    1.0000 </r>
       <r>   -6.4703    1.0000 </r>
       <r>   -4.5478    1.0000 </r>
       <r>   -4.0367    1.0000 </r>
       <r>   -3.3748    1.0000 </r>
       <r>   -3.1160    1.0000 </r>
       <r>   -3.0625    1.0000 </r>
       <r>   -3.0232    1.0000 </r>
       <r>   -2.9825    1.0000 </r>
       <r>   -2.7176    1.0000 </r>
       <r>   -2.7166    1.0000 </r>
       <r>   -1.8644    1.0000 </r>
       <r>   -1.7634    1.0000 </r>
       <r>   -1.7325    1.0000 </r>
       <r>   -1.7250    1.0000 </r>
       <r>   -1.0737    1.0000 </r>
       <r>   -0.4250    1.0000 </r>
       <r>   -0.2664    1.0000 </r>
       <r>   -0.2035    1.0000 </r>
       <r>   -0.0261    1.0000 </r>
       <r>    1.6803    0.0000 </r>
       <r>    2.0069    0.0000 </r>
       <r>    2.1147    0.0000 </r>
       <r>    2.2078    0.0000 </r>
       <r>    2.2581    0.0000 </r>
       <r>    2.2615    0.0000 </r>
       <r>    2.3690    0.0000 </r>
       <r>    2.7097    0.0000 </r>
       <r>    3.2546    0.0000 </r>
       <r>    3.3100    0.0000 </r>
      </set>
      <set comment="kpoint 6">
       <r>  -14.1835    1.0000 </r>
       <r>  -14.0713    1.0000 </r>
       <r>  -14.0118    1.0000 </r>
       <r>  -12.2792    1.0000 </r>
       <r>  -12.1494    1.0000 </r>
       <r>  -12.0931    1.0000 </r>
       <r>   -9.0386    1.0000 </r>
       <r>   -8.8859    1.0000 </r>
       <r>   -8.7730    1.0000 </r>
       <r>   -6.7951    1.0000 </r>
       <r>   -6.5652    1.0000 </r>
       <r>   -6.4187    1.0000 </r>
       <r>   -4.9851    1.0000 </r>
       <r>   -4.8441    1.0000 </r>
       <r>   -4.7154    1.0000 </r>
       <r>   -4.5106    1.0000 </r>
       <r>   -4.0365    1.0000 </r>
       <r>   -3.7227    1.0000 </r>
       <r>   -3.3122    1.0000 </r>
       <r>   -3.1965    1.0000 </r>
       <r>   -2.9131    1.0000 </r>
       <r>   -2.3348    1.0000 </r>
       <r>   -2.1641    1.0000 </r>
       <r>   -2.1424    1.0000 </r>
       <r>   -1.4980    1.0000 </r>
       <r>   -0.9504    1.0000 </r>
       <r>   -0.8600    1.0000 </r>
       <r>   -0.7296    1.0000 </r>
       <r>   -0.4594    1.0000 </r>
       <r>   -0.4112    1.0000 </r>
       <r>    2.0287    0.0000 </r>
       <r>    2.3136    0.0000 </r>
       <r>    2.5891    0.0000 </r>
       <r>    2.8643    0.0000 </r>
       <r>    3.0146    0.0000 </r>
       <r>    3.0664    0.0000 </r>
       <r>    3.3746    0.0000 </r>
       <r>    3.4989    0.0000 </r>
       <r>    3.6089    0.0000 </r>
       <r>    4.3244    0.0000 </r>
      </set>
      <set comment="kpoint 7">
       <r>  -13.2525    1.0000 </r>
       <r>  -13.1449    1.0000 </r>
       <r>  -13.0903    1.0000 </r>
       <r>  -11.4359    1.0000 </r>
       <r>  -11.3331    1.0000 </r>
       <r>  -11.3003    1.0000 </r>
       <r>   -9.7492    1.0000 </r>
       <r>   -9.5887    1.0000 </r>
       <r>   -9.4794    1.0000 </r>
       <r>   -7.5232    1.0000 </r>
       <r>   -7.4356    1.0000 </r>
       <r>   -7.4151    1.0000 </r>
       <r>   -5.8319    1.0000 </r>
       <r>   -5.6639    1.0000 </r>
       <r>   -5.5308    1.0000 </r>
       <r>   -4.7966    1.0000 </r>
       <r>   -4.7519    1.0000 </r>
       <r>   -4.6768    1.0000 </r>
       <r>   -3.3907    1.0000 </r>
       <r>   -3.3096    1.0000 </r>
       <r>   -3.1763    1.0000 </r>
       <r>   -2.5115    1.0000 </r>
       <r>   -2.3670    1.0000 </r>
       <r>   -2.3627    1.0000 </r>
       <r>   -2.2348    1.0000 </r>
       <r>   -1.8466    1.0000 </r>
       <r>   -1.3291    1.0000 </r>
       <r>   -0.9588    1.0000 </r>
       <r>   -0.6586    1.0000 </r>
       <r>   -0.6229    1.0000 </r>
       <r>    1.7045    0.0000 </r>
       <r>    1.8327    0.0000 </r>
       <r>    2.0278    0.0000 </r>
       <r>    2.5159    0.0000 </r>
       <r>    2.7061    0.0000 </r>
       <r>    2.9624    0.0000 </r>
       <r>    3.1535    0.0000 </r>
       <r>    3.3312    0.0000 </r>
       <r>    3.3732    0.0000 </r>
       <r>    3.8751    0.0000 </r>
      </set>
      <set comment="kpoint 8">
       <r>  -11.8536    1.0000 </r>
       <r>  -11.8536    1.0000 </r>
       <r>  -11.7613    1.0000 </r>
       <r>  -11.7613    1.0000 </r>
       <r>  -11.7232    1.0000 </r>
       <r>  -11.7232    1.0000 </r>
       <r>   -9.4299    1.0000 </r>
       <r>   -9.4299    1.0000 </r>
       <r>   -9.2718    1.0000 </r>
       <r>   -9.2718    1.0000 </r>
       <r>   -9.1807    1.0000 </r>
       <r>   -9.1807    1.0000 </r>
       <r>   -5.0166    1.0000 </r>
       <r>   -5.0166    1.0000 </r>
       <r>   -4.8267    1.0000 </r>
       <r>   -4.8267    1.0000 </r>
       <r>   -4.6752    1.0000 </r>
       <r>   -4.6752    1.0000 </r>
       <r>   -3.6855    1.0000 </r>
       <r>   -3.6855    1.0000 </r>
       <r>   -3.4408    1.0000 </r>
       <r>   -3.4408    1.0000 </r>
       <r>   -3.3079    1.0000 </r>
       <r>   -3.3079    1.0000 </r>
       <r>   -1.5483    1.0000 </r>
       <r>   -1.5483    1.0000 </r>
       <r>   -1.2044    1.0000 </r>
       <r>   -1.2044    1.0000 </r>
       <r>   -0.9088    1.0000 </r>
       <r>   -0.9088    1.0000 </r>
       <r>    2.0063    0.0000 </r>
       <r>    2.0063    0.0000 </r>
       <r>    2.3093    0.0000 </r>
       <r>    2.3093    0.0000 </r>
       <r>    2.4560    0.0000 </r>
       <r>    2.4560    0.0000 </r>
       <r>    3.1809    0.0000 </r>
       <r>    3.1809    0.0000 </r>
       <r>    3.4049    0.0000 </r>
       <r>    3.4049    0.0000 </r>
      </set>
      <set comment="kpoint 9">
       <r>  -13.5460    1.0000 </r>
       <r>  -13.5460    1.0000 </r>
       <r>  -13.4758    1.0000 </r>
       <r>  -13.4758    1.0000 </r>
       <r>  -13.4297    1.0000 </r>
       <r>  -13.4297    1.0000 </r>
       <r>   -8.5701    1.0000 </r>
       <r>   -8.5701    1.0000 </r>
       <r>   -8.2533    1.0000 </r>
       <r>   -8.2533    1.0000 </r>
       <r>   -7.9800    1.0000 </r>
       <r>   -7.9800    1.0000 </r>
       <r>   -3.5901    1.0000 </r>
       <r>   -3.5901    1.0000 </r>
       <r>   -2.8271    1.0000 </r>
       <r>   -2.8271    1.0000 </r>
       <r>   -2.4221    1.0000 </r>
       <r>   -2.4221    1.0000 </r>
       <r>   -2.3777    1.0000 </r>
       <r>   -2.3777    1.0000 </r>
       <r>   -2.3326    1.0000 </r>
       <r>   -2.3326    1.0000 </r>
       <r>   -2.0223    1.0000 </r>
       <r>   -2.0223    1.0000 </r>
       <r>   -0.7268    1.0000 </r>
       <r>   -0.7268    1.0000 </r>
       <r>   -0.5187    1.0000 </r>
       <r>   -0.5187    1.0000 </r>
       <r>   -0.4465    1.0000 </r>
       <r>   -0.4465    1.0000 </r>
       <r>    2.1907    0.0000 </r>
       <r>    2.1907    0.0000 </r>
       <r>    2.2347    0.0000 </r>
       <r>    2.2347    0.0000 </r>
       <r>    2.2870    0.0000 </r>
       <r>    2.2870    0.0000 </r>
       <r>    3.4184    0.0000 </r>
       <r>    3.4186    0.0000 </r>
       <r>    3.5673    0.0000 </r>
       <r>    3.6030    0.0000 </r>
      </set>
      <set comment="kpoint 10">
       <r>  -13.2400    1.0000 </r>
       <r>  -13.2400    1.0000 </r>
       <r>  -13.1700    1.0000 </r>
       <r>  -13.1700    1.0000 </r>
       <r>  -13.1248    1.0000 </r>
       <r>  -13.1248    1.0000 </r>
       <r>   -8.4254    1.0000 </r>
       <r>   -8.4254    1.0000 </r>
       <r>   -8.1348    1.0000 </r>
       <r>   -8.1348    1.0000 </r>
       <r>   -7.8945    1.0000 </r>
       <r>   -7.8945    1.0000 </r>
       <r>   -4.3692    1.0000 </r>
       <r>   -4.3692    1.0000 </r>
       <r>   -4.2627    1.0000 </r>
       <r>   -4.2627    1.0000 </r>
       <r>   -4.1648    1.0000 </r>
       <r>   -4.1648    1.0000 </r>
       <r>   -3.3501    1.0000 </r>
       <r>   -3.3501    1.0000 </r>
       <r>   -2.6366    1.0000 </r>
       <r>   -2.6366    1.0000 </r>
       <r>   -1.9670    1.0000 </r>
       <r>   -1.9670    1.0000 </r>
       <r>   -0.8110    1.0000 </r>
       <r>   -0.8110    1.0000 </r>
       <r>   -0.6437    1.0000 </r>
       <r>   -0.6437    1.0000 </r>
       <r>   -0.4906    1.0000 </r>
       <r>   -0.4906    1.0000 </r>
       <r>    2.8460    0.0000 </r>
       <r>    2.8460    0.0000 </r>
       <r>    2.9841    0.0000 </r>
       <r>    2.9841    0.0000 </r>
       <r>    3.0977    0.0000 </r>
       <r>    3.0977    0.0000 </r>
       <r>    3.5146    0.0000 </r>
       <r>    3.5146    0.0000 </r>
       <r>    3.9757    0.0000 </r>
       <r>    3.9757    0.0000 </r>
      </set>
      <set comment="kpoint 11">
       <r>  -12.3821    1.0000 </r>
       <r>  -12.3821    1.0000 </r>
       <r>  -12.3141    1.0000 </r>
       <r>  -12.3141    1.0000 </r>
       <r>  -12.2742    1.0000 </r>
       <r>  -12.2742    1.0000 </r>
       <r>   -8.6626    1.0000 </r>
       <r>   -8.6626    1.0000 </r>
       <r>   -8.5126    1.0000 </r>
       <r>   -8.5126    1.0000 </r>
       <r>   -8.4271    1.0000 </r>
       <r>   -8.4271    1.0000 </r>
       <r>   -5.7949    1.0000 </r>
       <r>   -5.7949    1.0000 </r>
       <r>   -5.5434    1.0000 </r>
       <r>   -5.5434    1.0000 </r>
       <r>   -5.3190    1.0000 </r>
       <r>   -5.3190    1.0000 </r>
       <r>   -3.4343    1.0000 </r>
       <r>   -3.4343    1.0000 </r>
       <r>   -3.0675    1.0000 </r>
       <r>   -3.0675    1.0000 </r>
       <r>   -2.7847    1.0000 </r>
       <r>   -2.7847    1.0000 </r>
       <r>   -1.8720    1.0000 </r>
       <r>   -1.8720    1.0000 </r>
       <r>   -1.3262    1.0000 </r>
       <r>   -1.3262    1.0000 </r>
       <r>   -0.8274    1.0000 </r>
       <r>   -0.8274    1.0000 </r>
       <r>    2.6930    0.0000 </r>
       <r>    2.6930    0.0000 </r>
       <r>    3.2799    0.0000 </r>
       <r>    3.2799    0.0000 </r>
       <r>    3.9573    0.0000 </r>
       <r>    3.9577    0.0000 </r>
       <r>    3.9842    0.0000 </r>
       <r>    3.9888    0.0000 </r>
       <r>    4.0885    0.0000 </r>
       <r>    4.1086    0.0000 </r>
      </set>
      <set comment="kpoint 12">
       <r>  -11.5657    1.0000 </r>
       <r>  -11.5657    1.0000 </r>
       <r>  -11.5092    1.0000 </r>
       <r>  -11.5092    1.0000 </r>
       <r>  -11.5091    1.0000 </r>
       <r>  -11.5091    1.0000 </r>
       <r>   -9.5289    1.0000 </r>
       <r>   -9.5289    1.0000 </r>
       <r>   -9.4650    1.0000 </r>
       <r>   -9.4650    1.0000 </r>
       <r>   -9.4637    1.0000 </r>
       <r>   -9.4637    1.0000 </r>
       <r>   -4.9600    1.0000 </r>
       <r>   -4.9600    1.0000 </r>
       <r>   -4.9452    1.0000 </r>
       <r>   -4.9452    1.0000 </r>
       <r>   -4.6700    1.0000 </r>
       <r>   -4.6700    1.0000 </r>
       <r>   -4.6164    1.0000 </r>
       <r>   -4.6164    1.0000 </r>
       <r>   -4.3744    1.0000 </r>
       <r>   -4.3744    1.0000 </r>
       <r>   -4.3737    1.0000 </r>
       <r>   -4.3737    1.0000 </r>
       <r>   -1.2336    1.0000 </r>
       <r>   -1.2336    1.0000 </r>
       <r>   -1.1791    1.0000 </r>
       <r>   -1.1791    1.0000 </r>
       <r>   -1.0507    1.0000 </r>
       <r>   -1.0507    1.0000 </r>
       <r>    2.6269    0.0000 </r>
       <r>    2.6269    0.0000 </r>
       <r>    2.7596    0.0000 </r>
       <r>    2.7596    0.0000 </r>
       <r>    2.8985    0.0000 </r>
       <r>    2.8985    0.0000 </r>
       <r>    4.8109    0.0000 </r>
       <r>    4.8286    0.0000 </r>
       <r>    4.8658    0.0000 </r>
       <r>    4.8693    0.0000 </r>
      </set>
     </set>
    </set>
   </array>
  </eigenvalues>
  <separator name="orbital magnetization" >
   <v name="MAGDIPOLOUT">      0.00000000      0.00000000      0.00000000</v>
  </separator>
  <dos>
   <i name="efermi">      0.94023635 </i>
   <total>
    <array>
     <dimension dim="1">gridpoints</dimension>
     <dimension dim="2">spin</dimension>
     <field>energy</field>
     <field>total</field>
     <field>integrated</field>
     <set>
      <set comment="spin 1">
       <r>   -15.8399     0.0000     0.0000 </r>
       <r>   -15.8291     0.0000     0.0000 </r>
       <r>   -15.8182     0.0000     0.0000 </r>
       <r>   -15.8074     0.0000     0.0000 </r>
       <r>   -15.7965     0.0000     0.0000 </r>
       <r>   -15.7856     0.0000     0.0000 </r>
       <r>   -15.7748     0.0000     0.0000 </r>
       <r>   -15.7639     0.0000     0.0000 </r>
       <r>   -15.7531     0.0000     0.0000 </r>
       <r>   -15.7422     0.0000     0.0000 </r>
       <r>   -15.7314     0.0000     0.0000 </r>
       <r>   -15.7205     0.0000     0.0000 </r>
       <r>   -15.7097     0.0000     0.0000 </r>
       <r>   -15.6988     0.0000     0.0000 </r>
       <r>   -15.6880     0.0000     0.0000 </r>
       <r>   -15.6771     0.0000     0.0000 </r>
       <r>   -15.6663     0.0000     0.0000 </r>
       <r>   -15.6554     0.0000     0.0000 </r>
       <r>   -15.6446     0.0000     0.0000 </r>
       <r>   -15.6337     0.0000     0.0000 </r>
       <r>   -15.6229     0.0000     0.0000 </r>
       <r>   -15.6120     0.0000     0.0000 </r>
       <r>   -15.6011     0.0000     0.0000 </r>
       <r>   -15.5903     0.0000     0.0000 </r>
       <r>   -15.5794     0.0000     0.0000 </r>
       <r>   -15.5686     0.0000     0.0000 </r>
       <r>   -15.5577     0.0000     0.0000 </r>
       <r>   -15.5469     0.0000     0.0000 </r>
       <r>   -15.5360     0.0000     0.0000 </r>
       <r>   -15.5252     0.0000     0.0000 </r>
       <r>   -15.5143     0.0000     0.0000 </r>
       <r>   -15.5035     0.0000     0.0000 </r>
       <r>   -15.4926     0.0000     0.0000 </r>
       <r>   -15.4818     0.0000     0.0000 </r>
       <r>   -15.4709     0.0000     0.0000 </r>
       <r>   -15.4601     0.0000     0.0000 </r>
       <r>   -15.4492     0.0000     0.0000 </r>
       <r>   -15.4383     0.0000     0.0000 </r>
       <r>   -15.4275     0.0000     0.0000 </r>
       <r>   -15.4166     0.0000     0.0000 </r>
       <r>   -15.4058     0.0000     0.0000 </r>
       <r>   -15.3949     0.0000     0.0000 </r>
       <r>   -15.3841     0.0000     0.0000 </r>
       <r>   -15.3732     0.0000     0.0000 </r>
       <r>   -15.3624     0.0000     0.0000 </r>
       <r>   -15.3515     0.0000     0.0000 </r>
       <r>   -15.3407     0.0000     0.0000 </r>
       <r>   -15.3298     0.0000     0.0000 </r>
       <r>   -15.3190     0.0000     0.0000 </r>
       <r>   -15.3081     0.0000     0.0000 </r>
       <r>   -15.2973     0.0000     0.0000 </r>
       <r>   -15.2864     0.0000     0.0000 </r>
       <r>   -15.2756     0.0000     0.0000 </r>
       <r>   -15.2647     0.0000     0.0000 </r>
       <r>   -15.2538     0.0000     0.0000 </r>
       <r>   -15.2430     0.0000     0.0000 </r>
       <r>   -15.2321     0.0000     0.0000 </r>
       <r>   -15.2213     0.0000     0.0000 </r>
       <r>   -15.2104     0.0000     0.0000 </r>
       <r>   -15.1996     0.0000     0.0000 </r>
       <r>   -15.1887     0.0000     0.0000 </r>
       <r>   -15.1779     0.0000     0.0000 </r>
       <r>   -15.1670     0.0000     0.0000 </r>
       <r>   -15.1562     0.0000     0.0000 </r>
       <r>   -15.1453     0.0000     0.0000 </r>
       <r>   -15.1345     0.0000     0.0000 </r>
       <r>   -15.1236     0.0000     0.0000 </r>
       <r>   -15.1128     0.0000     0.0000 </r>
       <r>   -15.1019     0.0000     0.0000 </r>
       <r>   -15.0910     0.0000     0.0000 </r>
       <r>   -15.0802     0.0000     0.0000 </r>
       <r>   -15.0693     0.0000     0.0000 </r>
       <r>   -15.0585     0.0000     0.0000 </r>
       <r>   -15.0476     0.0000     0.0000 </r>
       <r>   -15.0368     0.0000     0.0000 </r>
       <r>   -15.0259     0.0000     0.0000 </r>
       <r>   -15.0151     0.0000     0.0000 </r>
       <r>   -15.0042     0.0000     0.0000 </r>
       <r>   -14.9934     0.0000     0.0000 </r>
       <r>   -14.9825     0.0000     0.0000 </r>
       <r>   -14.9717     0.0000     0.0000 </r>
       <r>   -14.9608     0.0000     0.0000 </r>
       <r>   -14.9500     0.0000     0.0000 </r>
       <r>   -14.9391     0.0000     0.0000 </r>
       <r>   -14.9283     0.0000     0.0000 </r>
       <r>   -14.9174     0.0000     0.0000 </r>
       <r>   -14.9065     0.0000     0.0000 </r>
       <r>   -14.8957     0.0000     0.0000 </r>
       <r>   -14.8848     0.0000     0.0000 </r>
       <r>   -14.8740     0.0162     0.0002 </r>
       <r>   -14.8631     0.6939     0.0077 </r>
       <r>   -14.8523     3.7654     0.0486 </r>
       <r>   -14.8414     2.8912     0.0800 </r>
       <r>   -14.8306     0.3075     0.0833 </r>
       <r>   -14.8197     0.0040     0.0833 </r>
       <r>   -14.8089     0.0000     0.0833 </r>
       <r>   -14.7980     0.0000     0.0833 </r>
       <r>   -14.7872     0.0000     0.0833 </r>
       <r>   -14.7763     0.0000     0.0833 </r>
       <r>   -14.7655     0.0000     0.0833 </r>
       <r>   -14.7546     0.0092     0.0834 </r>
       <r>   -14.7437     0.5021     0.0889 </r>
       <r>   -14.7329     3.4294     0.1261 </r>
       <r>   -14.7220     3.2889     0.1618 </r>
       <r>   -14.7112     0.4414     0.1666 </r>
       <r>   -14.7003     0.0073     0.1667 </r>
       <r>   -14.6895     0.0017     0.1667 </r>
       <r>   -14.6786     0.1818     0.1687 </r>
       <r>   -14.6678     2.3383     0.1940 </r>
       <r>   -14.6569     4.0990     0.2385 </r>
       <r>   -14.6461     1.0242     0.2496 </r>
       <r>   -14.6352     0.0331     0.2500 </r>
       <r>   -14.6244     0.0001     0.2500 </r>
       <r>   -14.6135     0.0000     0.2500 </r>
       <r>   -14.6027     0.0000     0.2500 </r>
       <r>   -14.5918     0.0000     0.2500 </r>
       <r>   -14.5810     0.0000     0.2500 </r>
       <r>   -14.5701     0.0000     0.2500 </r>
       <r>   -14.5592     0.0003     0.2500 </r>
       <r>   -14.5484     0.0794     0.2509 </r>
       <r>   -14.5375     2.2549     0.2753 </r>
       <r>   -14.5267     8.3265     0.3657 </r>
       <r>   -14.5158     4.8083     0.4179 </r>
       <r>   -14.5050     5.3047     0.4755 </r>
       <r>   -14.4941     8.0420     0.5627 </r>
       <r>   -14.4833     1.8425     0.5827 </r>
       <r>   -14.4724     0.0543     0.5833 </r>
       <r>   -14.4616     0.0002     0.5833 </r>
       <r>   -14.4507     0.0000     0.5833 </r>
       <r>   -14.4399     0.0003     0.5833 </r>
       <r>   -14.4290     0.0767     0.5842 </r>
       <r>   -14.4182     2.2141     0.6082 </r>
       <r>   -14.4073     8.3709     0.6990 </r>
       <r>   -14.3964     6.5653     0.7703 </r>
       <r>   -14.3856     8.5705     0.8633 </r>
       <r>   -14.3747     4.5684     0.9129 </r>
       <r>   -14.3639     0.3748     0.9170 </r>
       <r>   -14.3530     1.3582     0.9317 </r>
       <r>   -14.3422     7.8377     1.0168 </r>
       <r>   -14.3313    10.5015     1.1307 </r>
       <r>   -14.3205     8.8451     1.2267 </r>
       <r>   -14.3096     2.0751     1.2493 </r>
       <r>   -14.2988     0.0673     1.2500 </r>
       <r>   -14.2879     0.0003     1.2500 </r>
       <r>   -14.2771     0.0000     1.2500 </r>
       <r>   -14.2662     0.0000     1.2500 </r>
       <r>   -14.2554     0.0000     1.2500 </r>
       <r>   -14.2445     0.0000     1.2500 </r>
       <r>   -14.2337     0.0000     1.2500 </r>
       <r>   -14.2228     0.0000     1.2500 </r>
       <r>   -14.2119     0.0009     1.2500 </r>
       <r>   -14.2011     0.1989     1.2522 </r>
       <r>   -14.1902     5.0647     1.3071 </r>
       <r>   -14.1794    16.8842     1.4904 </r>
       <r>   -14.1685     8.0437     1.5777 </r>
       <r>   -14.1577     0.5168     1.5833 </r>
       <r>   -14.1468     0.0039     1.5833 </r>
       <r>   -14.1360     0.0000     1.5833 </r>
       <r>   -14.1251     0.0000     1.5833 </r>
       <r>   -14.1143     0.0000     1.5833 </r>
       <r>   -14.1034     0.0001     1.5833 </r>
       <r>   -14.0926     0.0408     1.5838 </r>
       <r>   -14.0817     2.1364     1.6070 </r>
       <r>   -14.0709    13.9836     1.7587 </r>
       <r>   -14.0600    12.8711     1.8984 </r>
       <r>   -14.0491     1.6548     1.9164 </r>
       <r>   -14.0383     0.0291     1.9167 </r>
       <r>   -14.0274     0.4149     1.9212 </r>
       <r>   -14.0166     7.2672     2.0001 </r>
       <r>   -14.0057    17.0513     2.1851 </r>
       <r>   -13.9949     5.7224     2.2472 </r>
       <r>   -13.9840     0.2533     2.2500 </r>
       <r>   -13.9732     0.0013     2.2500 </r>
       <r>   -13.9623     0.0000     2.2500 </r>
       <r>   -13.9515     0.0000     2.2500 </r>
       <r>   -13.9406     0.0000     2.2500 </r>
       <r>   -13.9298     0.0000     2.2500 </r>
       <r>   -13.9189     0.0000     2.2500 </r>
       <r>   -13.9081     0.0000     2.2500 </r>
       <r>   -13.8972     0.0000     2.2500 </r>
       <r>   -13.8864     0.0000     2.2500 </r>
       <r>   -13.8755     0.0000     2.2500 </r>
       <r>   -13.8646     0.0000     2.2500 </r>
       <r>   -13.8538     0.0000     2.2500 </r>
       <r>   -13.8429     0.0000     2.2500 </r>
       <r>   -13.8321     0.0000     2.2500 </r>
       <r>   -13.8212     0.0000     2.2500 </r>
       <r>   -13.8104     0.0000     2.2500 </r>
       <r>   -13.7995     0.0000     2.2500 </r>
       <r>   -13.7887     0.0000     2.2500 </r>
       <r>   -13.7778     0.0000     2.2500 </r>
       <r>   -13.7670     0.0000     2.2500 </r>
       <r>   -13.7561     0.0000     2.2500 </r>
       <r>   -13.7453     0.0000     2.2500 </r>
       <r>   -13.7344     0.0000     2.2500 </r>
       <r>   -13.7236     0.0000     2.2500 </r>
       <r>   -13.7127     0.0000     2.2500 </r>
       <r>   -13.7018     0.0000     2.2500 </r>
       <r>   -13.6910     0.0000     2.2500 </r>
       <r>   -13.6801     0.0000     2.2500 </r>
       <r>   -13.6693     0.0000     2.2500 </r>
       <r>   -13.6584     0.0000     2.2500 </r>
       <r>   -13.6476     0.0000     2.2500 </r>
       <r>   -13.6367     0.0000     2.2500 </r>
       <r>   -13.6259     0.0000     2.2500 </r>
       <r>   -13.6150     0.0000     2.2500 </r>
       <r>   -13.6042     0.0010     2.2500 </r>
       <r>   -13.5933     0.1696     2.2519 </r>
       <r>   -13.5825     3.3016     2.2877 </r>
       <r>   -13.5716     8.5577     2.3806 </r>
       <r>   -13.5608     3.4544     2.4181 </r>
       <r>   -13.5499     4.3427     2.4652 </r>
       <r>   -13.5391     8.3932     2.5563 </r>
       <r>   -13.5282     2.4028     2.5824 </r>
       <r>   -13.5173     0.0898     2.5833 </r>
       <r>   -13.5065     0.0005     2.5833 </r>
       <r>   -13.4956     0.0391     2.5838 </r>
       <r>   -13.4848     1.5495     2.6006 </r>
       <r>   -13.4739     8.3858     2.6916 </r>
       <r>   -13.4631    11.4238     2.8156 </r>
       <r>   -13.4522     7.9748     2.9021 </r>
       <r>   -13.4414     2.0618     2.9245 </r>
       <r>   -13.4305     6.2199     2.9920 </r>
       <r>   -13.4197     7.2337     3.0705 </r>
       <r>   -13.4088     2.4169     3.0967 </r>
       <r>   -13.3980     7.3188     3.1762 </r>
       <r>   -13.3871     6.0859     3.2422 </r>
       <r>   -13.3763     0.7061     3.2499 </r>
       <r>   -13.3654     0.0101     3.2500 </r>
       <r>   -13.3545     0.0000     3.2500 </r>
       <r>   -13.3437     0.0000     3.2500 </r>
       <r>   -13.3328     0.0000     3.2500 </r>
       <r>   -13.3220     0.0000     3.2500 </r>
       <r>   -13.3111     0.0000     3.2500 </r>
       <r>   -13.3003     0.0000     3.2500 </r>
       <r>   -13.2894     0.0000     3.2500 </r>
       <r>   -13.2786     0.0034     3.2500 </r>
       <r>   -13.2677     0.4738     3.2552 </r>
       <r>   -13.2569     7.9763     3.3417 </r>
       <r>   -13.2460    22.7171     3.5883 </r>
       <r>   -13.2352    22.3862     3.8313 </r>
       <r>   -13.2243     7.4546     3.9122 </r>
       <r>   -13.2135     0.4120     3.9166 </r>
       <r>   -13.2026     0.0028     3.9167 </r>
       <r>   -13.1918     0.0320     3.9170 </r>
       <r>   -13.1809     1.8547     3.9371 </r>
       <r>   -13.1700    13.3774     4.0823 </r>
       <r>   -13.1592    14.1611     4.2360 </r>
       <r>   -13.1483    10.8574     4.3539 </r>
       <r>   -13.1375    17.7067     4.5460 </r>
       <r>   -13.1266    15.4446     4.7137 </r>
       <r>   -13.1158    15.5803     4.8828 </r>
       <r>   -13.1049     3.6345     4.9222 </r>
       <r>   -13.0941     8.5613     5.0151 </r>
       <r>   -13.0832    16.7474     5.1969 </r>
       <r>   -13.0724     4.7206     5.2481 </r>
       <r>   -13.0615     0.1735     5.2500 </r>
       <r>   -13.0507     0.0007     5.2500 </r>
       <r>   -13.0398     0.0000     5.2500 </r>
       <r>   -13.0290     0.0000     5.2500 </r>
       <r>   -13.0181     0.0000     5.2500 </r>
       <r>   -13.0072     0.0000     5.2500 </r>
       <r>   -12.9964     0.0000     5.2500 </r>
       <r>   -12.9855     0.0000     5.2500 </r>
       <r>   -12.9747     0.0000     5.2500 </r>
       <r>   -12.9638     0.0000     5.2500 </r>
       <r>   -12.9530     0.0000     5.2500 </r>
       <r>   -12.9421     0.0000     5.2500 </r>
       <r>   -12.9313     0.0000     5.2500 </r>
       <r>   -12.9204     0.0000     5.2500 </r>
       <r>   -12.9096     0.0000     5.2500 </r>
       <r>   -12.8987     0.0000     5.2500 </r>
       <r>   -12.8879     0.0000     5.2500 </r>
       <r>   -12.8770     0.0000     5.2500 </r>
       <r>   -12.8662     0.0000     5.2500 </r>
       <r>   -12.8553     0.0000     5.2500 </r>
       <r>   -12.8445     0.0000     5.2500 </r>
       <r>   -12.8336     0.0000     5.2500 </r>
       <r>   -12.8227     0.0000     5.2500 </r>
       <r>   -12.8119     0.0000     5.2500 </r>
       <r>   -12.8010     0.0000     5.2500 </r>
       <r>   -12.7902     0.0000     5.2500 </r>
       <r>   -12.7793     0.0000     5.2500 </r>
       <r>   -12.7685     0.0000     5.2500 </r>
       <r>   -12.7576     0.0000     5.2500 </r>
       <r>   -12.7468     0.0000     5.2500 </r>
       <r>   -12.7359     0.0000     5.2500 </r>
       <r>   -12.7251     0.0000     5.2500 </r>
       <r>   -12.7142     0.0000     5.2500 </r>
       <r>   -12.7034     0.0000     5.2500 </r>
       <r>   -12.6925     0.0000     5.2500 </r>
       <r>   -12.6817     0.0000     5.2500 </r>
       <r>   -12.6708     0.0000     5.2500 </r>
       <r>   -12.6599     0.0000     5.2500 </r>
       <r>   -12.6491     0.0000     5.2500 </r>
       <r>   -12.6382     0.0000     5.2500 </r>
       <r>   -12.6274     0.0000     5.2500 </r>
       <r>   -12.6165     0.0192     5.2502 </r>
       <r>   -12.6057     1.0313     5.2614 </r>
       <r>   -12.5948     6.9164     5.3365 </r>
       <r>   -12.5840     6.5170     5.4072 </r>
       <r>   -12.5731     0.8586     5.4165 </r>
       <r>   -12.5623     0.0140     5.4167 </r>
       <r>   -12.5514     0.0000     5.4167 </r>
       <r>   -12.5406     0.0000     5.4167 </r>
       <r>   -12.5297     0.0000     5.4167 </r>
       <r>   -12.5189     0.0000     5.4167 </r>
       <r>   -12.5080     0.0000     5.4167 </r>
       <r>   -12.4972     0.0000     5.4167 </r>
       <r>   -12.4863     0.0026     5.4167 </r>
       <r>   -12.4754     0.3048     5.4200 </r>
       <r>   -12.4646     4.3309     5.4670 </r>
       <r>   -12.4537     8.3420     5.5575 </r>
       <r>   -12.4429     2.2938     5.5824 </r>
       <r>   -12.4320     0.0822     5.5833 </r>
       <r>   -12.4212     0.0270     5.5836 </r>
       <r>   -12.4103     1.2453     5.5971 </r>
       <r>   -12.3995     7.5245     5.6788 </r>
       <r>   -12.3886    11.3912     5.8024 </r>
       <r>   -12.3778    19.3500     6.0124 </r>
       <r>   -12.3669    12.1191     6.1440 </r>
       <r>   -12.3561     2.0149     6.1658 </r>
       <r>   -12.3452     0.0760     6.1667 </r>
       <r>   -12.3344     0.0658     6.1674 </r>
       <r>   -12.3235     2.7896     6.1977 </r>
       <r>   -12.3126    15.0812     6.3613 </r>
       <r>   -12.3018    11.5619     6.4868 </r>
       <r>   -12.2909     2.9835     6.5192 </r>
       <r>   -12.2801    18.3834     6.7187 </r>
       <r>   -12.2692    31.4912     7.0605 </r>
       <r>   -12.2584     9.3499     7.1620 </r>
       <r>   -12.2475     0.4306     7.1666 </r>
       <r>   -12.2367     0.0026     7.1667 </r>
       <r>   -12.2258     0.0000     7.1667 </r>
       <r>   -12.2150     0.0000     7.1667 </r>
       <r>   -12.2041     0.0000     7.1667 </r>
       <r>   -12.1933     0.0000     7.1667 </r>
       <r>   -12.1824     0.0000     7.1667 </r>
       <r>   -12.1716     0.0266     7.1670 </r>
       <r>   -12.1607     1.6655     7.1850 </r>
       <r>   -12.1499    12.9033     7.3251 </r>
       <r>   -12.1390    14.2540     7.4798 </r>
       <r>   -12.1281     4.9749     7.5338 </r>
       <r>   -12.1173     3.8444     7.5755 </r>
       <r>   -12.1064     1.6099     7.5930 </r>
       <r>   -12.0956    10.2190     7.7039 </r>
       <r>   -12.0847    16.0366     7.8779 </r>
       <r>   -12.0739     5.8129     7.9410 </r>
       <r>   -12.0630     8.4290     8.0325 </r>
       <r>   -12.0522     4.5400     8.0818 </r>
       <r>   -12.0413     3.5983     8.1208 </r>
       <r>   -12.0305     8.5584     8.2137 </r>
       <r>   -12.0196     3.1863     8.2483 </r>
       <r>   -12.0088     0.1576     8.2500 </r>
       <r>   -11.9979     0.0009     8.2500 </r>
       <r>   -11.9871     0.0020     8.2500 </r>
       <r>   -11.9762     0.2631     8.2529 </r>
       <r>   -11.9653     4.0898     8.2973 </r>
       <r>   -11.9545     9.5037     8.4004 </r>
       <r>   -11.9436     6.6358     8.4724 </r>
       <r>   -11.9328     2.3746     8.4982 </r>
       <r>   -11.9219     0.6905     8.5057 </r>
       <r>   -11.9111     5.4214     8.5645 </r>
       <r>   -11.9002     7.7831     8.6490 </r>
       <r>   -11.8894     1.5860     8.6662 </r>
       <r>   -11.8785     0.0476     8.6667 </r>
       <r>   -11.8677     0.7023     8.6744 </r>
       <r>   -11.8568     9.2128     8.7743 </r>
       <r>   -11.8460    16.4598     8.9530 </r>
       <r>   -11.8351     4.1931     8.9985 </r>
       <r>   -11.8243     0.1383     9.0000 </r>
       <r>   -11.8134     0.0137     9.0001 </r>
       <r>   -11.8026     0.8291     9.0091 </r>
       <r>   -11.7917     6.4402     9.0790 </r>
       <r>   -11.7808     7.0736     9.1558 </r>
       <r>   -11.7700     4.3094     9.2026 </r>
       <r>   -11.7591    15.6665     9.3726 </r>
       <r>   -11.7483    10.7216     9.4890 </r>
       <r>   -11.7374     1.6807     9.5072 </r>
       <r>   -11.7266     9.0404     9.6053 </r>
       <r>   -11.7157    16.5393     9.7848 </r>
       <r>   -11.7049     4.3218     9.8317 </r>
       <r>   -11.6940     0.1465     9.8333 </r>
       <r>   -11.6832     0.0006     9.8333 </r>
       <r>   -11.6723     0.0000     9.8333 </r>
       <r>   -11.6615     0.0000     9.8333 </r>
       <r>   -11.6506     0.0000     9.8333 </r>
       <r>   -11.6398     0.0010     9.8333 </r>
       <r>   -11.6289     0.1712     9.8352 </r>
       <r>   -11.6180     3.3163     9.8712 </r>
       <r>   -11.6072     8.5550     9.9640 </r>
       <r>   -11.5963     3.1577     9.9983 </r>
       <r>   -11.5855     0.1934    10.0004 </r>
       <r>   -11.5746     1.5331    10.0171 </r>
       <r>   -11.5638     7.7199    10.1008 </r>
       <r>   -11.5529     5.5153    10.1607 </r>
       <r>   -11.5421     0.5438    10.1666 </r>
       <r>   -11.5312     0.0342    10.1670 </r>
       <r>   -11.5204     1.7040    10.1855 </r>
       <r>   -11.5095    12.9986    10.3265 </r>
       <r>   -11.4987    13.8649    10.4770 </r>
       <r>   -11.4878     2.0789    10.4996 </r>
       <r>   -11.4770     0.0390    10.5000 </r>
       <r>   -11.4661     0.0004    10.5000 </r>
       <r>   -11.4553     0.0951    10.5010 </r>
       <r>   -11.4444     3.4304    10.5383 </r>
       <r>   -11.4335    15.8422    10.7102 </r>
       <r>   -11.4227    10.3973    10.8230 </r>
       <r>   -11.4118     0.9375    10.8332 </r>
       <r>   -11.4010     0.0102    10.8333 </r>
       <r>   -11.3901     0.0000    10.8333 </r>
       <r>   -11.3793     0.0000    10.8333 </r>
       <r>   -11.3684     0.0000    10.8333 </r>
       <r>   -11.3576     0.0082    10.8334 </r>
       <r>   -11.3467     0.8166    10.8423 </r>
       <r>   -11.3359     9.8226    10.9489 </r>
       <r>   -11.3250    16.1716    11.1244 </r>
       <r>   -11.3142     4.5482    11.1738 </r>
       <r>   -11.3033     9.6508    11.2785 </r>
       <r>   -11.2925    16.3093    11.4555 </r>
       <r>   -11.2816     3.9736    11.4986 </r>
       <r>   -11.2707     0.1250    11.5000 </r>
       <r>   -11.2599     0.0004    11.5000 </r>
       <r>   -11.2490     0.0000    11.5000 </r>
       <r>   -11.2382     0.0000    11.5000 </r>
       <r>   -11.2273     0.0000    11.5000 </r>
       <r>   -11.2165     0.0000    11.5000 </r>
       <r>   -11.2056     0.0000    11.5000 </r>
       <r>   -11.1948     0.0000    11.5000 </r>
       <r>   -11.1839     0.0000    11.5000 </r>
       <r>   -11.1731     0.0000    11.5000 </r>
       <r>   -11.1622     0.0000    11.5000 </r>
       <r>   -11.1514     0.0000    11.5000 </r>
       <r>   -11.1405     0.0000    11.5000 </r>
       <r>   -11.1297     0.0000    11.5000 </r>
       <r>   -11.1188     0.0000    11.5000 </r>
       <r>   -11.1080     0.0000    11.5000 </r>
       <r>   -11.0971     0.0000    11.5000 </r>
       <r>   -11.0862     0.0000    11.5000 </r>
       <r>   -11.0754     0.0000    11.5000 </r>
       <r>   -11.0645     0.0002    11.5000 </r>
       <r>   -11.0537     0.0481    11.5005 </r>
       <r>   -11.0428     1.7248    11.5192 </r>
       <r>   -11.0320     7.9306    11.6053 </r>
       <r>   -11.0211     5.1827    11.6616 </r>
       <r>   -11.0103     0.4652    11.6666 </r>
       <r>   -10.9994     0.0050    11.6667 </r>
       <r>   -10.9886     0.0000    11.6667 </r>
       <r>   -10.9777     0.0000    11.6667 </r>
       <r>   -10.9669     0.0000    11.6667 </r>
       <r>   -10.9560     0.0000    11.6667 </r>
       <r>   -10.9452     0.0000    11.6667 </r>
       <r>   -10.9343     0.0000    11.6667 </r>
       <r>   -10.9234     0.0000    11.6667 </r>
       <r>   -10.9126     0.0000    11.6667 </r>
       <r>   -10.9017     0.0000    11.6667 </r>
       <r>   -10.8909     0.0000    11.6667 </r>
       <r>   -10.8800     0.0000    11.6667 </r>
       <r>   -10.8692     0.0000    11.6667 </r>
       <r>   -10.8583     0.0000    11.6667 </r>
       <r>   -10.8475     0.0000    11.6667 </r>
       <r>   -10.8366     0.0000    11.6667 </r>
       <r>   -10.8258     0.0001    11.6667 </r>
       <r>   -10.8149     0.0279    11.6670 </r>
       <r>   -10.8041     1.2752    11.6808 </r>
       <r>   -10.7932     7.3618    11.7607 </r>
       <r>   -10.7824     6.0024    11.8259 </r>
       <r>   -10.7715     0.6798    11.8332 </r>
       <r>   -10.7607     0.0094    11.8333 </r>
       <r>   -10.7498     0.0000    11.8333 </r>
       <r>   -10.7389     0.0000    11.8333 </r>
       <r>   -10.7281     0.0000    11.8333 </r>
       <r>   -10.7172     0.0000    11.8333 </r>
       <r>   -10.7064     0.0000    11.8333 </r>
       <r>   -10.6955     0.0000    11.8333 </r>
       <r>   -10.6847     0.0000    11.8333 </r>
       <r>   -10.6738     0.0000    11.8333 </r>
       <r>   -10.6630     0.0000    11.8333 </r>
       <r>   -10.6521     0.0000    11.8333 </r>
       <r>   -10.6413     0.0168    11.8335 </r>
       <r>   -10.6304     0.9538    11.8439 </r>
       <r>   -10.6196     6.7472    11.9171 </r>
       <r>   -10.6087     6.6925    11.9897 </r>
       <r>   -10.5979     0.9302    11.9998 </r>
       <r>   -10.5870     0.0161    12.0000 </r>
       <r>   -10.5761     0.0000    12.0000 </r>
       <r>   -10.5653     0.0000    12.0000 </r>
       <r>   -10.5544     0.0000    12.0000 </r>
       <r>   -10.5436     0.0000    12.0000 </r>
       <r>   -10.5327     0.0000    12.0000 </r>
       <r>   -10.5219     0.0000    12.0000 </r>
       <r>   -10.5110     0.0000    12.0000 </r>
       <r>   -10.5002     0.0000    12.0000 </r>
       <r>   -10.4893     0.0000    12.0000 </r>
       <r>   -10.4785     0.0000    12.0000 </r>
       <r>   -10.4676     0.0000    12.0000 </r>
       <r>   -10.4568     0.0000    12.0000 </r>
       <r>   -10.4459     0.0000    12.0000 </r>
       <r>   -10.4351     0.0000    12.0000 </r>
       <r>   -10.4242     0.0000    12.0000 </r>
       <r>   -10.4134     0.0000    12.0000 </r>
       <r>   -10.4025     0.0000    12.0000 </r>
       <r>   -10.3916     0.0000    12.0000 </r>
       <r>   -10.3808     0.0000    12.0000 </r>
       <r>   -10.3699     0.0000    12.0000 </r>
       <r>   -10.3591     0.0000    12.0000 </r>
       <r>   -10.3482     0.0000    12.0000 </r>
       <r>   -10.3374     0.0000    12.0000 </r>
       <r>   -10.3265     0.0000    12.0000 </r>
       <r>   -10.3157     0.0000    12.0000 </r>
       <r>   -10.3048     0.0000    12.0000 </r>
       <r>   -10.2940     0.0000    12.0000 </r>
       <r>   -10.2831     0.0000    12.0000 </r>
       <r>   -10.2723     0.0001    12.0000 </r>
       <r>   -10.2614     0.0285    12.0003 </r>
       <r>   -10.2506     1.2924    12.0143 </r>
       <r>   -10.2397     7.3889    12.0945 </r>
       <r>   -10.2288     5.9681    12.1593 </r>
       <r>   -10.2180     0.6693    12.1666 </r>
       <r>   -10.2071     0.0092    12.1667 </r>
       <r>   -10.1963     0.0000    12.1667 </r>
       <r>   -10.1854     0.0047    12.1667 </r>
       <r>   -10.1746     0.4430    12.1715 </r>
       <r>   -10.1637     5.0811    12.2267 </r>
       <r>   -10.1529     8.1377    12.3150 </r>
       <r>   -10.1420     4.8753    12.3679 </r>
       <r>   -10.1312     8.6030    12.4613 </r>
       <r>   -10.1203     3.3882    12.4980 </r>
       <r>   -10.1095     0.1790    12.5000 </r>
       <r>   -10.0986     0.0011    12.5000 </r>
       <r>   -10.0878     0.0000    12.5000 </r>
       <r>   -10.0769     0.0000    12.5000 </r>
       <r>   -10.0661     0.0000    12.5000 </r>
       <r>   -10.0552     0.0000    12.5000 </r>
       <r>   -10.0443     0.0000    12.5000 </r>
       <r>   -10.0335     0.0000    12.5000 </r>
       <r>   -10.0226     0.0000    12.5000 </r>
       <r>   -10.0118     0.0000    12.5000 </r>
       <r>   -10.0009     0.0000    12.5000 </r>
       <r>    -9.9901     0.0000    12.5000 </r>
       <r>    -9.9792     0.0000    12.5000 </r>
       <r>    -9.9684     0.0000    12.5000 </r>
       <r>    -9.9575     0.0000    12.5000 </r>
       <r>    -9.9467     0.0000    12.5000 </r>
       <r>    -9.9358     0.0000    12.5000 </r>
       <r>    -9.9250     0.0000    12.5000 </r>
       <r>    -9.9141     0.0000    12.5000 </r>
       <r>    -9.9033     0.0000    12.5000 </r>
       <r>    -9.8924     0.0000    12.5000 </r>
       <r>    -9.8815     0.0000    12.5000 </r>
       <r>    -9.8707     0.0000    12.5000 </r>
       <r>    -9.8598     0.0000    12.5000 </r>
       <r>    -9.8490     0.0000    12.5000 </r>
       <r>    -9.8381     0.0000    12.5000 </r>
       <r>    -9.8273     0.0000    12.5000 </r>
       <r>    -9.8164     0.0000    12.5000 </r>
       <r>    -9.8056     0.0000    12.5000 </r>
       <r>    -9.7947     0.0000    12.5000 </r>
       <r>    -9.7839     0.0000    12.5000 </r>
       <r>    -9.7730     0.0114    12.5001 </r>
       <r>    -9.7622     0.9999    12.5110 </r>
       <r>    -9.7513    10.6706    12.6268 </r>
       <r>    -9.7405    15.6746    12.7969 </r>
       <r>    -9.7296     3.2693    12.8324 </r>
       <r>    -9.7188     0.0871    12.8333 </r>
       <r>    -9.7079     0.0003    12.8333 </r>
       <r>    -9.6970     0.0000    12.8333 </r>
       <r>    -9.6862     0.0000    12.8333 </r>
       <r>    -9.6753     0.0000    12.8333 </r>
       <r>    -9.6645     0.0000    12.8333 </r>
       <r>    -9.6536     0.0000    12.8333 </r>
       <r>    -9.6428     0.0000    12.8333 </r>
       <r>    -9.6319     0.0000    12.8333 </r>
       <r>    -9.6211     0.0001    12.8333 </r>
       <r>    -9.6102     0.0356    12.8337 </r>
       <r>    -9.5994     1.9757    12.8552 </r>
       <r>    -9.5885    13.6467    13.0033 </r>
       <r>    -9.5777    13.2294    13.1469 </r>
       <r>    -9.5668     1.7954    13.1663 </r>
       <r>    -9.5560     0.0312    13.1667 </r>
       <r>    -9.5451     0.1690    13.1685 </r>
       <r>    -9.5342     3.2953    13.2043 </r>
       <r>    -9.5234     8.5556    13.2971 </r>
       <r>    -9.5125     3.1781    13.3316 </r>
       <r>    -9.5017     0.1811    13.3336 </r>
       <r>    -9.4908     1.5853    13.3508 </r>
       <r>    -9.4800    13.0973    13.4929 </r>
       <r>    -9.4691    21.4630    13.7259 </r>
       <r>    -9.4583    19.2213    13.9345 </r>
       <r>    -9.4474     5.9802    13.9994 </r>
       <r>    -9.4366     5.3879    14.0579 </r>
       <r>    -9.4257    16.9083    14.2414 </r>
       <r>    -9.4149     8.1540    14.3299 </r>
       <r>    -9.4040     3.9897    14.3732 </r>
       <r>    -9.3932     8.5479    14.4659 </r>
       <r>    -9.3823     2.9976    14.4985 </r>
       <r>    -9.3715     0.1391    14.5000 </r>
       <r>    -9.3606     0.0008    14.5000 </r>
       <r>    -9.3497     0.0000    14.5000 </r>
       <r>    -9.3389     0.0000    14.5000 </r>
       <r>    -9.3280     0.0000    14.5000 </r>
       <r>    -9.3172     0.0000    14.5000 </r>
       <r>    -9.3063     0.0000    14.5000 </r>
       <r>    -9.2955     0.0122    14.5001 </r>
       <r>    -9.2846     1.0470    14.5115 </r>
       <r>    -9.2738    10.8672    14.6294 </r>
       <r>    -9.2629    15.5483    14.7982 </r>
       <r>    -9.2521     3.1564    14.8324 </r>
       <r>    -9.2412     0.0817    14.8333 </r>
       <r>    -9.2304     0.0002    14.8333 </r>
       <r>    -9.2195     0.0000    14.8333 </r>
       <r>    -9.2087     0.0012    14.8333 </r>
       <r>    -9.1978     0.2391    14.8359 </r>
       <r>    -9.1869     5.6784    14.8976 </r>
       <r>    -9.1761    19.8739    15.1133 </r>
       <r>    -9.1652    15.9848    15.2867 </r>
       <r>    -9.1544     4.0795    15.3310 </r>
       <r>    -9.1435     0.2113    15.3333 </r>
       <r>    -9.1327     0.0014    15.3333 </r>
       <r>    -9.1218     0.0000    15.3333 </r>
       <r>    -9.1110     0.0000    15.3333 </r>
       <r>    -9.1001     0.0000    15.3333 </r>
       <r>    -9.0893     0.0000    15.3333 </r>
       <r>    -9.0784     0.0000    15.3333 </r>
       <r>    -9.0676     0.0007    15.3333 </r>
       <r>    -9.0567     0.1612    15.3351 </r>
       <r>    -9.0459     4.5443    15.3844 </r>
       <r>    -9.0350    16.6624    15.5652 </r>
       <r>    -9.0242     8.8041    15.6608 </r>
       <r>    -9.0133     3.8041    15.7021 </r>
       <r>    -9.0024    15.5623    15.8710 </r>
       <r>    -8.9916    10.8308    15.9885 </r>
       <r>    -8.9807     1.0440    15.9999 </r>
       <r>    -8.9699     0.0123    16.0000 </r>
       <r>    -8.9590     0.0000    16.0000 </r>
       <r>    -8.9482     0.0000    16.0000 </r>
       <r>    -8.9373     0.0000    16.0000 </r>
       <r>    -8.9265     0.0006    16.0000 </r>
       <r>    -8.9156     0.1203    16.0013 </r>
       <r>    -8.9048     2.9021    16.0328 </r>
       <r>    -8.8939    12.3691    16.1671 </r>
       <r>    -8.8831    19.9425    16.3835 </r>
       <r>    -8.8722     9.9350    16.4913 </r>
       <r>    -8.8614     1.2112    16.5045 </r>
       <r>    -8.8505     5.3738    16.5628 </r>
       <r>    -8.8396    14.5369    16.7206 </r>
       <r>    -8.8288    17.7620    16.9133 </r>
       <r>    -8.8179     7.3989    16.9936 </r>
       <r>    -8.8071     0.5807    16.9999 </r>
       <r>    -8.7962     0.0216    17.0002 </r>
       <r>    -8.7854     1.1980    17.0132 </r>
[...]
        <r>  0.0000  0.0107  0.0191  0.0156  0.0000  0.0000  0.0000  0.0000  0.0000 </r>
        <r>  0.0000  0.0102  0.0181  0.0164  0.0000  0.0000  0.0000  0.0000  0.0000 </r>
        <r>  0.0000  0.0107  0.0191  0.0156  0.0000  0.0000  0.0000  0.0000  0.0000 </r>
        <r>  0.0000  0.0102  0.0181  0.0164  0.0000  0.0000  0.0000  0.0000  0.0000 </r>
        <r>  0.0144  0.0020  0.0065  0.0040  0.0000  0.0000  0.0000  0.0000  0.0000 </r>
        <r>  0.0152  0.0021  0.0068  0.0038  0.0000  0.0000  0.0000  0.0000  0.0000 </r>
        <r>  0.0152  0.0033  0.0108  0.0076  0.0000  0.0000  0.0000  0.0000  0.0000 </r>
        <r>  0.0160  0.0035  0.0114  0.0072  0.0000  0.0000  0.0000  0.0000  0.0000 </r>
       </set>
       <set comment="band 25">
        <r>  0.0002  0.0023  0.0010  0.0001  0.0000  0.0000  0.0000  0.0000  0.0000 </r>
        <r>  0.0000  0.0005  0.0002  0.0007  0.0000  0.0000  0.0000  0.0000  0.0000 </r>
        <r>  0.0004  0.0001  0.0020  0.0002  0.0000  0.0000  0.0000  0.0000  0.0000 </r>
        <r>  0.0001  0.0000  0.0004  0.0013  0.0000  0.0000  0.0000  0.0000  0.0000 </r>
        <r>  0.0032  0.0249  0.0036  0.0160  0.0000  0.0000  0.0000  0.0000  0.0000 </r>
        <r>  0.0167  0.1282  0.0185  0.0031  0.0000  0.0000  0.0000  0.0000  0.0000 </r>
        <r>  0.0032  0.0249  0.0036  0.0160  0.0000  0.0000  0.0000  0.0000  0.0000 </r>
        <r>  0.0167  0.1282  0.0185  0.0031  0.0000  0.0000  0.0000  0.0000  0.0000 </r>
        <r>  0.0004  0.0001  0.0020  0.0002  0.0000  0.0000  0.0000  0.0000  0.0000 </r>
        <r>  0.0001  0.0000  0.0004  0.0013  0.0000  0.0000  0.0000  0.0000  0.0000 </r>
        <r>  0.0002  0.0023  0.0010  0.0001  0.0000  0.0000  0.0000  0.0000  0.0000 </r>
        <r>  0.0000  0.0005  0.0002  0.0007  0.0000  0.0000  0.0000  0.0000  0.0000 </r>
       </set>
       <set comment="band 26">
        <r>  0.0000  0.0005  0.0002  0.0007  0.0000  0.0000  0.0000  0.0000  0.0000 </r>
        <r>  0.0002  0.0023  0.0010  0.0001  0.0000  0.0000  0.0000  0.0000  0.0000 </r>
        <r>  0.0001  0.0000  0.0004  0.0013  0.0000  0.0000  0.0000  0.0000  0.0000 </r>
        <r>  0.0004  0.0001  0.0020  0.0002  0.0000  0.0000  0.0000  0.0000  0.0000 </r>
        <r>  0.0167  0.1282  0.0185  0.0031  0.0000  0.0000  0.0000  0.0000  0.0000 </r>
        <r>  0.0032  0.0249  0.0036  0.0160  0.0000  0.0000  0.0000  0.0000  0.0000 </r>
        <r>  0.0167  0.1282  0.0185  0.0031  0.0000  0.0000  0.0000  0.0000  0.0000 </r>
        <r>  0.0032  0.0249  0.0036  0.0160  0.0000  0.0000  0.0000  0.0000  0.0000 </r>
        <r>  0.0001  0.0000  0.0004  0.0013  0.0000  0.0000  0.0000  0.0000  0.0000 </r>
        <r>  0.0004  0.0001  0.0020  0.0002  0.0000  0.0000  0.0000  0.0000  0.0000 </r>
        <r>  0.0000  0.0005  0.0002  0.0007  0.0000  0.0000  0.0000  0.0000  0.0000 </r>
        <r>  0.0002  0.0023  0.0010  0.0001  0.0000  0.0000  0.0000  0.0000  0.0000 </r>
       </set>
       <set comment="band 27">
        <r>  0.0056  0.0347  0.0056  0.0060  0.0000  0.0000  0.0000  0.0000  0.0000 </r>
        <r>  0.0070  0.0433  0.0070  0.0048  0.0000  0.0000  0.0000  0.0000  0.0000 </r>
        <r>  0.0036  0.0346  0.0045  0.0050  0.0000  0.0000  0.0000  0.0000  0.0000 </r>
        <r>  0.0045  0.0432  0.0056  0.0040  0.0000  0.0000  0.0000  0.0000  0.0000 </r>
        <r>  0.0004  0.0012  0.0000  0.0000  0.0000  0.0000  0.0000  0.0000  0.0000 </r>
        <r>  0.0003  0.0009  0.0000  0.0000  0.0000  0.0000  0.0000  0.0000  0.0000 </r>
        <r>  0.0004  0.0012  0.0000  0.0000  0.0000  0.0000  0.0000  0.0000  0.0000 </r>
        <r>  0.0003  0.0009  0.0000  0.0000  0.0000  0.0000  0.0000  0.0000  0.0000 </r>
        <r>  0.0036  0.0346  0.0045  0.0050  0.0000  0.0000  0.0000  0.0000  0.0000 </r>
        <r>  0.0045  0.0432  0.0056  0.0040  0.0000  0.0000  0.0000  0.0000  0.0000 </r>
        <r>  0.0056  0.0347  0.0056  0.0060  0.0000  0.0000  0.0000  0.0000  0.0000 </r>
        <r>  0.0070  0.0433  0.0070  0.0048  0.0000  0.0000  0.0000  0.0000  0.0000 </r>
       </set>
       <set comment="band 28">
        <r>  0.0070  0.0433  0.0070  0.0048  0.0000  0.0000  0.0000  0.0000  0.0000 </r>
        <r>  0.0056  0.0347  0.0056  0.0060  0.0000  0.0000  0.0000  0.0000  0.0000 </r>
        <r>  0.0045  0.0432  0.0056  0.0040  0.0000  0.0000  0.0000  0.0000  0.0000 </r>
        <r>  0.0036  0.0346  0.0045  0.0050  0.0000  0.0000  0.0000  0.0000  0.0000 </r>
        <r>  0.0003  0.0009  0.0000  0.0000  0.0000  0.0000  0.0000  0.0000  0.0000 </r>
        <r>  0.0004  0.0012  0.0000  0.0000  0.0000  0.0000  0.0000  0.0000  0.0000 </r>
        <r>  0.0003  0.0009  0.0000  0.0000  0.0000  0.0000  0.0000  0.0000  0.0000 </r>
        <r>  0.0004  0.0012  0.0000  0.0000  0.0000  0.0000  0.0000  0.0000  0.0000 </r>
        <r>  0.0045  0.0432  0.0056  0.0040  0.0000  0.0000  0.0000  0.0000  0.0000 </r>
        <r>  0.0036  0.0346  0.0045  0.0050  0.0000  0.0000  0.0000  0.0000  0.0000 </r>
        <r>  0.0070  0.0433  0.0070  0.0048  0.0000  0.0000  0.0000  0.0000  0.0000 </r>
        <r>  0.0056  0.0347  0.0056  0.0060  0.0000  0.0000  0.0000  0.0000  0.0000 </r>
       </set>
       <set comment="band 29">
        <r>  0.0039  0.0274  0.0042  0.0069  0.0000  0.0000  0.0000  0.0000  0.0000 </r>
        <r>  0.0075  0.0524  0.0080  0.0036  0.0000  0.0000  0.0000  0.0000  0.0000 </r>
        <r>  0.0036  0.0274  0.0040  0.0066  0.0000  0.0000  0.0000  0.0000  0.0000 </r>
        <r>  0.0068  0.0524  0.0077  0.0035  0.0000  0.0000  0.0000  0.0000  0.0000 </r>
        <r>  0.0000  0.0005  0.0022  0.0007  0.0000  0.0000  0.0000  0.0000  0.0000 </r>
        <r>  0.0000  0.0003  0.0012  0.0014  0.0000  0.0000  0.0000  0.0000  0.0000 </r>
        <r>  0.0000  0.0005  0.0022  0.0007  0.0000  0.0000  0.0000  0.0000  0.0000 </r>
        <r>  0.0000  0.0003  0.0012  0.0014  0.0000  0.0000  0.0000  0.0000  0.0000 </r>
        <r>  0.0036  0.0274  0.0040  0.0066  0.0000  0.0000  0.0000  0.0000  0.0000 </r>
        <r>  0.0068  0.0524  0.0077  0.0035  0.0000  0.0000  0.0000  0.0000  0.0000 </r>
        <r>  0.0039  0.0274  0.0042  0.0069  0.0000  0.0000  0.0000  0.0000  0.0000 </r>
        <r>  0.0075  0.0524  0.0080  0.0036  0.0000  0.0000  0.0000  0.0000  0.0000 </r>
       </set>
       <set comment="band 30">
        <r>  0.0075  0.0524  0.0080  0.0036  0.0000  0.0000  0.0000  0.0000  0.0000 </r>
        <r>  0.0039  0.0274  0.0042  0.0069  0.0000  0.0000  0.0000  0.0000  0.0000 </r>
        <r>  0.0068  0.0524  0.0077  0.0035  0.0000  0.0000  0.0000  0.0000  0.0000 </r>
        <r>  0.0036  0.0274  0.0040  0.0066  0.0000  0.0000  0.0000  0.0000  0.0000 </r>
        <r>  0.0000  0.0003  0.0012  0.0014  0.0000  0.0000  0.0000  0.0000  0.0000 </r>
        <r>  0.0000  0.0005  0.0022  0.0007  0.0000  0.0000  0.0000  0.0000  0.0000 </r>
        <r>  0.0000  0.0003  0.0012  0.0014  0.0000  0.0000  0.0000  0.0000  0.0000 </r>
        <r>  0.0000  0.0005  0.0022  0.0007  0.0000  0.0000  0.0000  0.0000  0.0000 </r>
        <r>  0.0068  0.0524  0.0077  0.0035  0.0000  0.0000  0.0000  0.0000  0.0000 </r>
        <r>  0.0036  0.0274  0.0040  0.0066  0.0000  0.0000  0.0000  0.0000  0.0000 </r>
        <r>  0.0075  0.0524  0.0080  0.0036  0.0000  0.0000  0.0000  0.0000  0.0000 </r>
        <r>  0.0039  0.0274  0.0042  0.0069  0.0000  0.0000  0.0000  0.0000  0.0000 </r>
       </set>
       <set comment="band 31">
        <r>  0.0086  0.0359  0.0026  0.0007  0.0000  0.0000  0.0000  0.0000  0.0000 </r>
        <r>  0.0026  0.0108  0.0008  0.0024  0.0000  0.0000  0.0000  0.0000  0.0000 </r>
        <r>  0.0081  0.0369  0.0011  0.0005  0.0000  0.0000  0.0000  0.0000  0.0000 </r>
        <r>  0.0024  0.0112  0.0003  0.0017  0.0000  0.0000  0.0000  0.0000  0.0000 </r>
        <r>  0.0015  0.0013  0.0002  0.0003  0.0000  0.0000  0.0000  0.0000  0.0000 </r>
        <r>  0.0051  0.0044  0.0007  0.0001  0.0000  0.0000  0.0000  0.0000  0.0000 </r>
        <r>  0.0015  0.0013  0.0002  0.0003  0.0000  0.0000  0.0000  0.0000  0.0000 </r>
        <r>  0.0051  0.0044  0.0007  0.0001  0.0000  0.0000  0.0000  0.0000  0.0000 </r>
        <r>  0.0081  0.0369  0.0011  0.0005  0.0000  0.0000  0.0000  0.0000  0.0000 </r>
        <r>  0.0024  0.0112  0.0003  0.0017  0.0000  0.0000  0.0000  0.0000  0.0000 </r>
        <r>  0.0086  0.0359  0.0026  0.0007  0.0000  0.0000  0.0000  0.0000  0.0000 </r>
        <r>  0.0026  0.0108  0.0008  0.0024  0.0000  0.0000  0.0000  0.0000  0.0000 </r>
       </set>
       <set comment="band 32">
        <r>  0.0026  0.0108  0.0008  0.0024  0.0000  0.0000  0.0000  0.0000  0.0000 </r>
        <r>  0.0086  0.0359  0.0026  0.0007  0.0000  0.0000  0.0000  0.0000  0.0000 </r>
        <r>  0.0024  0.0112  0.0003  0.0017  0.0000  0.0000  0.0000  0.0000  0.0000 </r>
        <r>  0.0081  0.0369  0.0011  0.0005  0.0000  0.0000  0.0000  0.0000  0.0000 </r>
        <r>  0.0051  0.0044  0.0007  0.0001  0.0000  0.0000  0.0000  0.0000  0.0000 </r>
        <r>  0.0015  0.0013  0.0002  0.0003  0.0000  0.0000  0.0000  0.0000  0.0000 </r>
        <r>  0.0051  0.0044  0.0007  0.0001  0.0000  0.0000  0.0000  0.0000  0.0000 </r>
        <r>  0.0015  0.0013  0.0002  0.0003  0.0000  0.0000  0.0000  0.0000  0.0000 </r>
        <r>  0.0024  0.0112  0.0003  0.0017  0.0000  0.0000  0.0000  0.0000  0.0000 </r>
        <r>  0.0081  0.0369  0.0011  0.0005  0.0000  0.0000  0.0000  0.0000  0.0000 </r>
        <r>  0.0026  0.0108  0.0008  0.0024  0.0000  0.0000  0.0000  0.0000  0.0000 </r>
        <r>  0.0086  0.0359  0.0026  0.0007  0.0000  0.0000  0.0000  0.0000  0.0000 </r>
       </set>
       <set comment="band 33">
        <r>  0.0004  0.0139  0.0004  0.0000  0.0000  0.0000  0.0000  0.0000  0.0000 </r>
        <r>  0.0000  0.0002  0.0000  0.0002  0.0000  0.0000  0.0000  0.0000  0.0000 </r>
        <r>  0.0087  0.0001  0.0039  0.0000  0.0000  0.0000  0.0000  0.0000  0.0000 </r>
        <r>  0.0001  0.0000  0.0001  0.0018  0.0000  0.0000  0.0000  0.0000  0.0000 </r>
        <r>  0.0003  0.0015  0.0001  0.0058  0.0000  0.0000  0.0000  0.0000  0.0000 </r>
        <r>  0.0218  0.0954  0.0051  0.0001  0.0000  0.0000  0.0000  0.0000  0.0000 </r>
        <r>  0.0003  0.0015  0.0001  0.0058  0.0000  0.0000  0.0000  0.0000  0.0000 </r>
        <r>  0.0218  0.0954  0.0051  0.0001  0.0000  0.0000  0.0000  0.0000  0.0000 </r>
        <r>  0.0087  0.0001  0.0039  0.0000  0.0000  0.0000  0.0000  0.0000  0.0000 </r>
        <r>  0.0001  0.0000  0.0001  0.0018  0.0000  0.0000  0.0000  0.0000  0.0000 </r>
        <r>  0.0004  0.0139  0.0004  0.0000  0.0000  0.0000  0.0000  0.0000  0.0000 </r>
        <r>  0.0000  0.0002  0.0000  0.0002  0.0000  0.0000  0.0000  0.0000  0.0000 </r>
       </set>
       <set comment="band 34">
        <r>  0.0000  0.0002  0.0000  0.0002  0.0000  0.0000  0.0000  0.0000  0.0000 </r>
        <r>  0.0004  0.0139  0.0004  0.0000  0.0000  0.0000  0.0000  0.0000  0.0000 </r>
        <r>  0.0001  0.0000  0.0001  0.0018  0.0000  0.0000  0.0000  0.0000  0.0000 </r>
        <r>  0.0087  0.0001  0.0039  0.0000  0.0000  0.0000  0.0000  0.0000  0.0000 </r>
        <r>  0.0218  0.0954  0.0051  0.0001  0.0000  0.0000  0.0000  0.0000  0.0000 </r>
        <r>  0.0003  0.0015  0.0001  0.0058  0.0000  0.0000  0.0000  0.0000  0.0000 </r>
        <r>  0.0218  0.0954  0.0051  0.0001  0.0000  0.0000  0.0000  0.0000  0.0000 </r>
        <r>  0.0003  0.0015  0.0001  0.0058  0.0000  0.0000  0.0000  0.0000  0.0000 </r>
        <r>  0.0001  0.0000  0.0001  0.0018  0.0000  0.0000  0.0000  0.0000  0.0000 </r>
        <r>  0.0087  0.0001  0.0039  0.0000  0.0000  0.0000  0.0000  0.0000  0.0000 </r>
        <r>  0.0000  0.0002  0.0000  0.0002  0.0000  0.0000  0.0000  0.0000  0.0000 </r>
        <r>  0.0004  0.0139  0.0004  0.0000  0.0000  0.0000  0.0000  0.0000  0.0000 </r>
       </set>
       <set comment="band 35">
        <r>  0.0066  0.0284  0.0011  0.0013  0.0000  0.0000  0.0000  0.0000  0.0000 </r>
        <r>  0.0061  0.0263  0.0010  0.0014  0.0000  0.0000  0.0000  0.0000  0.0000 </r>
        <r>  0.0068  0.0279  0.0024  0.0019  0.0000  0.0000  0.0000  0.0000  0.0000 </r>
        <r>  0.0063  0.0259  0.0023  0.0021  0.0000  0.0000  0.0000  0.0000  0.0000 </r>
        <r>  0.0013  0.0035  0.0018  0.0008  0.0000  0.0000  0.0000  0.0000  0.0000 </r>
        <r>  0.0014  0.0038  0.0019  0.0007  0.0000  0.0000  0.0000  0.0000  0.0000 </r>
        <r>  0.0013  0.0035  0.0018  0.0008  0.0000  0.0000  0.0000  0.0000  0.0000 </r>
        <r>  0.0014  0.0038  0.0019  0.0007  0.0000  0.0000  0.0000  0.0000  0.0000 </r>
        <r>  0.0068  0.0279  0.0024  0.0019  0.0000  0.0000  0.0000  0.0000  0.0000 </r>
        <r>  0.0063  0.0259  0.0023  0.0021  0.0000  0.0000  0.0000  0.0000  0.0000 </r>
        <r>  0.0066  0.0284  0.0011  0.0013  0.0000  0.0000  0.0000  0.0000  0.0000 </r>
        <r>  0.0061  0.0263  0.0010  0.0014  0.0000  0.0000  0.0000  0.0000  0.0000 </r>
       </set>
       <set comment="band 36">
        <r>  0.0061  0.0263  0.0010  0.0014  0.0000  0.0000  0.0000  0.0000  0.0000 </r>
        <r>  0.0066  0.0284  0.0011  0.0013  0.0000  0.0000  0.0000  0.0000  0.0000 </r>
        <r>  0.0063  0.0259  0.0023  0.0021  0.0000  0.0000  0.0000  0.0000  0.0000 </r>
        <r>  0.0068  0.0279  0.0024  0.0019  0.0000  0.0000  0.0000  0.0000  0.0000 </r>
        <r>  0.0014  0.0038  0.0019  0.0007  0.0000  0.0000  0.0000  0.0000  0.0000 </r>
        <r>  0.0013  0.0035  0.0018  0.0008  0.0000  0.0000  0.0000  0.0000  0.0000 </r>
        <r>  0.0014  0.0038  0.0019  0.0007  0.0000  0.0000  0.0000  0.0000  0.0000 </r>
        <r>  0.0013  0.0035  0.0018  0.0008  0.0000  0.0000  0.0000  0.0000  0.0000 </r>
        <r>  0.0063  0.0259  0.0023  0.0021  0.0000  0.0000  0.0000  0.0000  0.0000 </r>
        <r>  0.0068  0.0279  0.0024  0.0019  0.0000  0.0000  0.0000  0.0000  0.0000 </r>
        <r>  0.0061  0.0263  0.0010  0.0014  0.0000  0.0000  0.0000  0.0000  0.0000 </r>
        <r>  0.0066  0.0284  0.0011  0.0013  0.0000  0.0000  0.0000  0.0000  0.0000 </r>
       </set>
       <set comment="band 37">
        <r>  0.0000  0.0001  0.0002  0.0003  0.0000  0.0000  0.0000  0.0000  0.0000 </r>
        <r>  0.0001  0.0001  0.0007  0.0001  0.0000  0.0000  0.0000  0.0000  0.0000 </r>
        <r>  0.0000  0.0002  0.0003  0.0003  0.0000  0.0000  0.0000  0.0000  0.0000 </r>
        <r>  0.0000  0.0002  0.0007  0.0001  0.0000  0.0000  0.0000  0.0000  0.0000 </r>
        <r>  0.0025  0.0013  0.0609  0.0390  0.0000  0.0000  0.0000  0.0000  0.0000 </r>
        <r>  0.0036  0.0019  0.0871  0.0272  0.0000  0.0000  0.0000  0.0000  0.0000 </r>
        <r>  0.0025  0.0013  0.0609  0.0390  0.0000  0.0000  0.0000  0.0000  0.0000 </r>
        <r>  0.0036  0.0019  0.0870  0.0272  0.0000  0.0000  0.0000  0.0000  0.0000 </r>
        <r>  0.0000  0.0002  0.0007  0.0007  0.0000  0.0000  0.0000  0.0000  0.0000 </r>
        <r>  0.0001  0.0002  0.0014  0.0003  0.0000  0.0000  0.0000  0.0000  0.0000 </r>
        <r>  0.0000  0.0001  0.0005  0.0006  0.0000  0.0000  0.0000  0.0000  0.0000 </r>
        <r>  0.0001  0.0001  0.0014  0.0003  0.0000  0.0000  0.0000  0.0000  0.0000 </r>
       </set>
       <set comment="band 38">
        <r>  0.0007  0.0006  0.0141  0.0062  0.0000  0.0000  0.0000  0.0000  0.0000 </r>
        <r>  0.0006  0.0004  0.0135  0.0064  0.0000  0.0000  0.0000  0.0000  0.0000 </r>
        <r>  0.0007  0.0005  0.0149  0.0067  0.0000  0.0000  0.0000  0.0000  0.0000 </r>
        <r>  0.0008  0.0003  0.0155  0.0068  0.0000  0.0000  0.0000  0.0000  0.0000 </r>
        <r>  0.0024  0.0014  0.0579  0.0184  0.0000  0.0000  0.0000  0.0000  0.0000 </r>
        <r>  0.0018  0.0010  0.0414  0.0266  0.0000  0.0000  0.0000  0.0000  0.0000 </r>
        <r>  0.0026  0.0012  0.0608  0.0183  0.0000  0.0000  0.0000  0.0000  0.0000 </r>
        <r>  0.0017  0.0010  0.0403  0.0266  0.0000  0.0000  0.0000  0.0000  0.0000 </r>
        <r>  0.0006  0.0002  0.0120  0.0045  0.0000  0.0000  0.0000  0.0000  0.0000 </r>
        <r>  0.0005  0.0007  0.0090  0.0052  0.0000  0.0000  0.0000  0.0000  0.0000 </r>
        <r>  0.0005  0.0003  0.0108  0.0042  0.0000  0.0000  0.0000  0.0000  0.0000 </r>
        <r>  0.0006  0.0005  0.0093  0.0049  0.0000  0.0000  0.0000  0.0000  0.0000 </r>
       </set>
       <set comment="band 39">
        <r>  0.0020  0.0015  0.0430  0.0240  0.0000  0.0000  0.0000  0.0000  0.0000 </r>
        <r>  0.0025  0.0018  0.0524  0.0196  0.0000  0.0000  0.0000  0.0000  0.0000 </r>
        <r>  0.0023  0.0012  0.0459  0.0255  0.0000  0.0000  0.0000  0.0000  0.0000 </r>
        <r>  0.0027  0.0015  0.0563  0.0209  0.0000  0.0000  0.0000  0.0000  0.0000 </r>
        <r>  0.0000  0.0000  0.0001  0.0000  0.0000  0.0000  0.0000  0.0000  0.0000 </r>
        <r>  0.0000  0.0000  0.0001  0.0000  0.0000  0.0000  0.0000  0.0000  0.0000 </r>
        <r>  0.0000  0.0000  0.0000  0.0000  0.0000  0.0000  0.0000  0.0000  0.0000 </r>
        <r>  0.0000  0.0000  0.0001  0.0000  0.0000  0.0000  0.0000  0.0000  0.0000 </r>
        <r>  0.0015  0.0008  0.0276  0.0104  0.0000  0.0000  0.0000  0.0000  0.0000 </r>
        <r>  0.0012  0.0007  0.0222  0.0128  0.0000  0.0000  0.0000  0.0000  0.0000 </r>
        <r>  0.0013  0.0010  0.0264  0.0097  0.0000  0.0000  0.0000  0.0000  0.0000 </r>
        <r>  0.0011  0.0009  0.0215  0.0119  0.0000  0.0000  0.0000  0.0000  0.0000 </r>
       </set>
       <set comment="band 40">
        <r>  0.0020  0.0011  0.0455  0.0061  0.0000  0.0000  0.0000  0.0000  0.0000 </r>
        <r>  0.0006  0.0003  0.0127  0.0216  0.0000  0.0000  0.0000  0.0000  0.0000 </r>
        <r>  0.0020  0.0011  0.0528  0.0063  0.0000  0.0000  0.0000  0.0000  0.0000 </r>
        <r>  0.0005  0.0003  0.0148  0.0226  0.0000  0.0000  0.0000  0.0000  0.0000 </r>
        <r>  0.0000  0.0001  0.0001  0.0000  0.0000  0.0000  0.0000  0.0000  0.0000 </r>
        <r>  0.0000  0.0003  0.0001  0.0000  0.0000  0.0000  0.0000  0.0000  0.0000 </r>
        <r>  0.0000  0.0001  0.0001  0.0000  0.0000  0.0000  0.0000  0.0000  0.0000 </r>
        <r>  0.0000  0.0003  0.0002  0.0000  0.0000  0.0000  0.0000  0.0000  0.0000 </r>
        <r>  0.0026  0.0014  0.0673  0.0114  0.0000  0.0000  0.0000  0.0000  0.0000 </r>
        <r>  0.0011  0.0006  0.0264  0.0290  0.0000  0.0000  0.0000  0.0000  0.0000 </r>
        <r>  0.0026  0.0015  0.0586  0.0109  0.0000  0.0000  0.0000  0.0000  0.0000 </r>
        <r>  0.0010  0.0006  0.0231  0.0277  0.0000  0.0000  0.0000  0.0000  0.0000 </r>
       </set>
      </set>
     </set>
    </set>
   </array>
  </projected>
 </calculation>
 <structure name="finalpos" >
  <crystal>
   <varray name="basis" >
    <v>       3.34288600       0.00000000       0.00000000 </v>
    <v>       0.00000000      32.60240900       0.00000000 </v>
    <v>       0.00000000       0.00000000       4.37483100 </v>
   </varray>
   <i name="volume">    476.79592902 </i>
   <varray name="rec_basis" >
    <v>       0.29914272       0.00000000       0.00000000 </v>
    <v>       0.00000000       0.03067258       0.00000000 </v>
    <v>       0.00000000       0.00000000       0.22858026 </v>
   </varray>
  </crystal>
  <varray name="positions" >
   <v>       0.00000000       0.30672600       0.91892400 </v>
   <v>       0.50000000       0.30672600       0.58107600 </v>
   <v>       0.00000000       0.37246700       0.08107600 </v>
   <v>       0.50000000       0.37246700       0.41892400 </v>
   <v>       0.50000000       0.46712900       0.91892400 </v>
   <v>       0.00000000       0.46712900       0.58107600 </v>
   <v>       0.50000000       0.53287100       0.08107600 </v>
   <v>       0.00000000       0.53287100       0.41892400 </v>
   <v>       0.00000000       0.62753300       0.91892400 </v>
   <v>       0.50000000       0.62753300       0.58107600 </v>
   <v>       0.00000000       0.69327400       0.08107600 </v>
   <v>       0.50000000       0.69327400       0.41892400 </v>
  </varray>
 </structure>
</modeling>
