  12  12   1   0
  0.3973299E+02  0.3342886E-09  0.3260241E-08  0.4374831E-09  0.5000000E-15
  1.000000000000000E-004
  CAR 
 Generic Input                           
      5.85134146    -15.84074288 2000      0.93886791      1.00000000
    -15.841  0.0000E+00  0.0000E+00
    -15.830  0.0000E+00  0.0000E+00
    -15.819  0.0000E+00  0.0000E+00
    -15.808  0.0000E+00  0.0000E+00
    -15.797  0.0000E+00  0.0000E+00
    -15.786  0.0000E+00  0.0000E+00
    -15.776  0.0000E+00  0.0000E+00
    -15.765  0.0000E+00  0.0000E+00
    -15.754  0.0000E+00  0.0000E+00
    -15.743  0.0000E+00  0.0000E+00
    -15.732  0.0000E+00  0.0000E+00
    -15.721  0.0000E+00  0.0000E+00
    -15.711  0.0000E+00  0.0000E+00
    -15.700  0.0000E+00  0.0000E+00
    -15.689  0.0000E+00  0.0000E+00
    -15.678  0.0000E+00  0.0000E+00
    -15.667  0.0000E+00  0.0000E+00
    -15.656  0.0000E+00  0.0000E+00
    -15.645  0.0000E+00  0.0000E+00
    -15.635  0.0000E+00  0.0000E+00
    -15.624  0.0000E+00  0.0000E+00
    -15.613  0.0000E+00  0.0000E+00
    -15.602  0.0000E+00  0.0000E+00
    -15.591  0.0000E+00  0.0000E+00
    -15.580  0.0000E+00  0.0000E+00
    -15.569  0.0000E+00  0.0000E+00
    -15.559  0.0000E+00  0.0000E+00
    -15.548  0.0000E+00  0.0000E+00
    -15.537  0.0000E+00  0.0000E+00
    -15.526  0.0000E+00  0.0000E+00
    -15.515  0.0000E+00  0.0000E+00
    -15.504  0.0000E+00  0.0000E+00
    -15.493  0.0000E+00  0.0000E+00
    -15.483  0.0000E+00  0.0000E+00
    -15.472  0.0000E+00  0.0000E+00
    -15.461  0.0000E+00  0.0000E+00
    -15.450  0.0000E+00  0.0000E+00
    -15.439  0.0000E+00  0.0000E+00
    -15.428  0.0000E+00  0.0000E+00
    -15.418  0.0000E+00  0.0000E+00
    -15.407  0.0000E+00  0.0000E+00
    -15.396  0.0000E+00  0.0000E+00
    -15.385  0.0000E+00  0.0000E+00
    -15.374  0.0000E+00  0.0000E+00
    -15.363  0.0000E+00  0.0000E+00
    -15.352  0.0000E+00  0.0000E+00
    -15.342  0.0000E+00  0.0000E+00
    -15.331  0.0000E+00  0.0000E+00
    -15.320  0.0000E+00  0.0000E+00
    -15.309  0.0000E+00  0.0000E+00
    -15.298  0.0000E+00  0.0000E+00
    -15.287  0.0000E+00  0.0000E+00
    -15.276  0.0000E+00  0.0000E+00
    -15.266  0.0000E+00  0.0000E+00
    -15.255  0.0000E+00  0.0000E+00
    -15.244  0.0000E+00  0.0000E+00
    -15.233  0.0000E+00  0.0000E+00
    -15.222  0.0000E+00  0.0000E+00
    -15.211  0.0000E+00  0.0000E+00
    -15.201  0.0000E+00  0.0000E+00
    -15.190  0.0000E+00  0.0000E+00
    -15.179  0.0000E+00  0.0000E+00
    -15.168  0.0000E+00  0.0000E+00
    -15.157  0.0000E+00  0.0000E+00
    -15.146  0.0000E+00  0.0000E+00
    -15.135  0.0000E+00  0.0000E+00
    -15.125  0.0000E+00  0.0000E+00
    -15.114  0.0000E+00  0.0000E+00
    -15.103  0.0000E+00  0.0000E+00
    -15.092  0.0000E+00  0.0000E+00
    -15.081  0.0000E+00  0.0000E+00
    -15.070  0.0000E+00  0.0000E+00
    -15.059  0.0000E+00  0.0000E+00
    -15.049  0.0000E+00  0.0000E+00
    -15.038  0.0000E+00  0.0000E+00
    -15.027  0.0000E+00  0.0000E+00
    -15.016  0.0000E+00  0.0000E+00
    -15.005  0.0000E+00  0.0000E+00
    -14.994  0.0000E+00  0.0000E+00
    -14.983  0.0000E+00  0.0000E+00
    -14.973  0.0000E+00  0.0000E+00
    -14.962  0.0000E+00  0.0000E+00
    -14.951  0.0000E+00  0.0000E+00
    -14.940  0.0000E+00  0.0000E+00
    -14.929  0.0000E+00  0.0000E+00
    -14.918  0.0000E+00  0.0000E+00
    -14.908  0.3227E-12  0.3502E-14
    -14.897  0.1168E-07  0.1268E-09
    -14.886  0.4260E-04  0.4624E-06
    -14.875  0.1622E-01  0.1765E-03
    -14.864  0.6943E+00  0.7710E-02
    -14.853  0.3766E+01  0.4857E-01
    -14.842  0.2892E+01  0.7995E-01
    -14.832  0.3077E+00  0.8329E-01
    -14.821  0.4001E-02  0.8333E-01
    -14.810  0.5704E-05  0.8333E-01
    -14.799  0.8387E-09  0.8333E-01
    -14.788  0.1471E-12  0.8333E-01
    -14.777  0.5814E-08  0.8333E-01
    -14.766  0.2510E-04  0.8333E-01
    -14.756  0.1128E-01  0.8346E-01
    -14.745  0.5653E+00  0.8959E-01
    -14.734  0.3556E+01  0.1282E+00
    -14.723  0.3151E+01  0.1624E+00
    -14.712  0.3897E+00  0.1666E+00
    -14.701  0.5948E-02  0.1667E+00
    -14.690  0.1880E-02  0.1667E+00
    -14.680  0.1933E+00  0.1688E+00
    -14.669  0.2399E+01  0.1948E+00
    -14.658  0.4070E+01  0.2390E+00
    -14.647  0.9840E+00  0.2497E+00
    -14.636  0.3071E-01  0.2500E+00
    -14.625  0.1092E-03  0.2500E+00
    -14.615  0.4086E-07  0.2500E+00
    -14.604  0.1545E-11  0.2500E+00
    -14.593  0.0000E+00  0.2500E+00
    -14.582  0.5625E-11  0.2500E+00
    -14.571  0.1316E-06  0.2500E+00
    -14.560  0.3117E-03  0.2500E+00
    -14.549  0.7793E-01  0.2508E+00
    -14.539  0.2232E+01  0.2751E+00
    -14.528  0.8314E+01  0.3653E+00
    -14.517  0.4834E+01  0.4177E+00
    -14.506  0.5270E+01  0.4749E+00
    -14.495  0.8065E+01  0.5624E+00
    -14.484  0.1869E+01  0.5827E+00
    -14.473  0.5580E-01  0.5833E+00
    -14.463  0.1893E-03  0.5833E+00
    -14.452  0.2443E-06  0.5833E+00
    -14.441  0.3882E-03  0.5833E+00
    -14.430  0.9017E-01  0.5843E+00
    -14.419  0.2408E+01  0.6104E+00
    -14.408  0.8478E+01  0.7024E+00
    -14.397  0.6497E+01  0.7729E+00
    -14.387  0.8634E+01  0.8666E+00
    -14.376  0.4308E+01  0.9134E+00
    -14.365  0.3339E+00  0.9170E+00
    -14.354  0.1405E+01  0.9322E+00
    -14.343  0.7923E+01  0.1018E+01
    -14.332  0.1051E+02  0.1132E+01
    -14.322  0.8775E+01  0.1227E+01
    -14.311  0.2011E+01  0.1249E+01
    -14.300  0.6349E-01  0.1250E+01
    -14.289  0.2293E-03  0.1250E+01
    -14.278  0.8724E-07  0.1250E+01
    -14.267  0.3352E-11  0.1250E+01
    -14.256  0.0000E+00  0.1250E+01
    -14.246  0.0000E+00  0.1250E+01
    -14.235  0.1878E-10  0.1250E+01
    -14.224  0.3954E-06  0.1250E+01
    -14.213  0.8436E-03  0.1250E+01
    -14.202  0.1905E+00  0.1252E+01
    -14.191  0.4953E+01  0.1306E+01
    -14.180  0.1684E+02  0.1489E+01
    -14.170  0.8188E+01  0.1577E+01
    -14.159  0.5378E+00  0.1583E+01
    -14.148  0.4190E-02  0.1583E+01
    -14.137  0.3514E-05  0.1583E+01
    -14.126  0.3018E-09  0.1583E+01
    -14.115  0.2628E-07  0.1583E+01
    -14.105  0.1102E-03  0.1583E+01
    -14.094  0.4810E-01  0.1584E+01
    -14.083  0.2345E+01  0.1609E+01
    -14.072  0.1438E+02  0.1765E+01
    -14.061  0.1243E+02  0.1900E+01
    -14.050  0.1497E+01  0.1916E+01
    -14.039  0.2517E-01  0.1917E+01
    -14.029  0.4303E+00  0.1921E+01
    -14.018  0.7391E+01  0.2002E+01
    -14.007  0.1703E+02  0.2186E+01
    -13.996  0.5616E+01  0.2247E+01
    -13.985  0.2441E+00  0.2250E+01
    -13.974  0.1230E-02  0.2250E+01
    -13.963  0.6579E-06  0.2250E+01
    -13.953  0.3573E-10  0.2250E+01
    -13.942  0.0000E+00  0.2250E+01
    -13.931  0.0000E+00  0.2250E+01
    -13.920  0.0000E+00  0.2250E+01
    -13.909  0.0000E+00  0.2250E+01
    -13.898  0.0000E+00  0.2250E+01
    -13.887  0.0000E+00  0.2250E+01
    -13.877  0.0000E+00  0.2250E+01
    -13.866  0.0000E+00  0.2250E+01
    -13.855  0.0000E+00  0.2250E+01
    -13.844  0.0000E+00  0.2250E+01
    -13.833  0.0000E+00  0.2250E+01
    -13.822  0.0000E+00  0.2250E+01
    -13.812  0.0000E+00  0.2250E+01
    -13.801  0.0000E+00  0.2250E+01
    -13.790  0.0000E+00  0.2250E+01
    -13.779  0.0000E+00  0.2250E+01
    -13.768  0.0000E+00  0.2250E+01
    -13.757  0.0000E+00  0.2250E+01
    -13.746  0.0000E+00  0.2250E+01
    -13.736  0.0000E+00  0.2250E+01
    -13.725  0.0000E+00  0.2250E+01
    -13.714  0.0000E+00  0.2250E+01
    -13.703  0.0000E+00  0.2250E+01
    -13.692  0.0000E+00  0.2250E+01
    -13.681  0.0000E+00  0.2250E+01
    -13.670  0.0000E+00  0.2250E+01
    -13.660  0.0000E+00  0.2250E+01
    -13.649  0.0000E+00  0.2250E+01
    -13.638  0.0000E+00  0.2250E+01
    -13.627  0.3511E-10  0.2250E+01
    -13.616  0.5605E-06  0.2250E+01
    -13.605  0.9102E-03  0.2250E+01
    -13.594  0.1576E+00  0.2252E+01
    -13.584  0.3186E+01  0.2286E+01
    -13.573  0.8558E+01  0.2379E+01
    -13.562  0.3547E+01  0.2418E+01
    -13.551  0.4187E+01  0.2463E+01
    -13.540  0.8444E+01  0.2555E+01
    -13.529  0.2536E+01  0.2582E+01
    -13.519  0.9981E-01  0.2583E+01
    -13.508  0.5846E-03  0.2583E+01
    -13.497  0.4373E-01  0.2584E+01
    -13.486  0.1648E+01  0.2602E+01
    -13.475  0.8549E+01  0.2694E+01
    -13.464  0.1143E+02  0.2818E+01
    -13.453  0.7799E+01  0.2903E+01
    -13.443  0.1993E+01  0.2925E+01
    -13.432  0.6264E+01  0.2993E+01
    -13.421  0.7195E+01  0.3071E+01
    -13.410  0.2397E+01  0.3097E+01
    -13.399  0.7321E+01  0.3176E+01
    -13.388  0.6084E+01  0.3242E+01
    -13.377  0.7056E+00  0.3250E+01
    -13.367  0.1006E-01  0.3250E+01
    -13.356  0.1577E-04  0.3250E+01
    -13.345  0.2556E-08  0.3250E+01
    -13.334  0.4092E-13  0.3250E+01
    -13.323  0.0000E+00  0.3250E+01
    -13.312  0.1705E-14  0.3250E+01
    -13.301  0.1636E-09  0.3250E+01
    -13.291  0.2179E-05  0.3250E+01
    -13.280  0.2961E-02  0.3250E+01
    -13.269  0.4323E+00  0.3255E+01
    -13.258  0.7625E+01  0.3337E+01
    -13.247  0.2245E+02  0.3581E+01
    -13.236  0.2260E+02  0.3826E+01
    -13.226  0.7868E+01  0.3912E+01
    -13.215  0.4613E+00  0.3917E+01
    -13.204  0.3348E-02  0.3917E+01
    -13.193  0.3537E-01  0.3917E+01
    -13.182  0.1966E+01  0.3938E+01
    -13.171  0.1363E+02  0.4086E+01
    -13.160  0.1396E+02  0.4238E+01
    -13.150  0.1104E+02  0.4358E+01
    -13.139  0.1759E+02  0.4549E+01
    -13.128  0.1529E+02  0.4714E+01
    -13.117  0.1554E+02  0.4883E+01
    -13.106  0.3607E+01  0.4922E+01
    -13.095  0.8528E+01  0.5015E+01
    -13.084  0.1676E+02  0.5197E+01
    -13.074  0.4748E+01  0.5248E+01
    -13.063  0.1756E+00  0.5250E+01
    -13.052  0.7457E-03  0.5250E+01
    -13.041  0.3349E-06  0.5250E+01
    -13.030  0.1523E-10  0.5250E+01
    -13.019  0.0000E+00  0.5250E+01
    -13.009  0.0000E+00  0.5250E+01
    -12.998  0.0000E+00  0.5250E+01
    -12.987  0.0000E+00  0.5250E+01
    -12.976  0.0000E+00  0.5250E+01
    -12.965  0.0000E+00  0.5250E+01
    -12.954  0.0000E+00  0.5250E+01
    -12.943  0.0000E+00  0.5250E+01
    -12.933  0.0000E+00  0.5250E+01
    -12.922  0.0000E+00  0.5250E+01
    -12.911  0.0000E+00  0.5250E+01
    -12.900  0.0000E+00  0.5250E+01
    -12.889  0.0000E+00  0.5250E+01
    -12.878  0.0000E+00  0.5250E+01
    -12.867  0.0000E+00  0.5250E+01
    -12.857  0.0000E+00  0.5250E+01
    -12.846  0.0000E+00  0.5250E+01
    -12.835  0.0000E+00  0.5250E+01
    -12.824  0.0000E+00  0.5250E+01
    -12.813  0.0000E+00  0.5250E+01
    -12.802  0.0000E+00  0.5250E+01
    -12.791  0.0000E+00  0.5250E+01
    -12.781  0.0000E+00  0.5250E+01
    -12.770  0.0000E+00  0.5250E+01
    -12.759  0.0000E+00  0.5250E+01
    -12.748  0.0000E+00  0.5250E+01
    -12.737  0.0000E+00  0.5250E+01
    -12.726  0.0000E+00  0.5250E+01
    -12.716  0.0000E+00  0.5250E+01
    -12.705  0.0000E+00  0.5250E+01
    -12.694  0.0000E+00  0.5250E+01
    -12.683  0.0000E+00  0.5250E+01
    -12.672  0.0000E+00  0.5250E+01
    -12.661  0.0000E+00  0.5250E+01
    -12.650  0.1296E-12  0.5250E+01
    -12.640  0.6431E-08  0.5250E+01
    -12.629  0.3197E-04  0.5250E+01
    -12.618  0.1649E-01  0.5250E+01
    -12.607  0.9440E+00  0.5260E+01
    -12.596  0.6724E+01  0.5333E+01
    -12.585  0.6717E+01  0.5406E+01
    -12.574  0.9409E+00  0.5416E+01
    -12.564  0.1640E-01  0.5417E+01
    -12.553  0.3171E-04  0.5417E+01
    -12.542  0.6362E-08  0.5417E+01
    -12.531  0.1279E-12  0.5417E+01
    -12.520  0.2558E-14  0.5417E+01
    -12.509  0.2412E-09  0.5417E+01
    -12.498  0.2538E-05  0.5417E+01
    -12.488  0.2733E-02  0.5417E+01
    -12.477  0.3179E+00  0.5420E+01
    -12.466  0.4411E+01  0.5468E+01
    -12.455  0.8312E+01  0.5558E+01
    -12.444  0.2236E+01  0.5582E+01
    -12.433  0.7831E-01  0.5583E+01
    -12.423  0.2535E-01  0.5584E+01
    -12.412  0.1201E+01  0.5597E+01
    -12.401  0.7414E+01  0.5677E+01
    -12.390  0.1101E+02  0.5797E+01
    -12.379  0.1913E+02  0.6004E+01
    -12.368  0.1272E+02  0.6142E+01
    -12.357  0.2178E+01  0.6166E+01
    -12.347  0.8479E-01  0.6167E+01
    -12.336  0.6877E-01  0.6167E+01
    -12.325  0.2857E+01  0.6198E+01
    -12.314  0.1517E+02  0.6363E+01
    -12.303  0.1143E+02  0.6487E+01
    -12.292  0.2786E+01  0.6517E+01
    -12.281  0.1781E+02  0.6711E+01
    -12.271  0.3188E+02  0.7057E+01
    -12.260  0.9687E+01  0.7162E+01
    -12.249  0.4509E+00  0.7167E+01
    -12.238  0.2706E-02  0.7167E+01
    -12.227  0.1825E-05  0.7167E+01
    -12.216  0.1281E-09  0.7167E+01
    -12.206  0.1722E-12  0.7167E+01
    -12.195  0.9240E-08  0.7167E+01
    -12.184  0.4966E-04  0.7167E+01
    -12.173  0.2766E-01  0.7167E+01
    -12.162  0.1703E+01  0.7185E+01
    -12.151  0.1300E+02  0.7327E+01
    -12.140  0.1417E+02  0.7480E+01
    -12.130  0.4960E+01  0.7534E+01
    -12.119  0.3823E+01  0.7576E+01
    -12.108  0.1546E+01  0.7592E+01
    -12.097  0.9978E+01  0.7701E+01
    -12.086  0.1616E+02  0.7876E+01
    -12.075  0.5759E+01  0.7939E+01
    -12.064  0.8314E+01  0.8029E+01
    -12.054  0.4815E+01  0.8081E+01
    -12.043  0.3466E+01  0.8119E+01
    -12.032  0.8556E+01  0.8211E+01
    -12.021  0.3373E+01  0.8248E+01
    -12.010  0.1774E+00  0.8250E+01
    -11.999  0.1094E-02  0.8250E+01
    -11.988  0.2089E-02  0.8250E+01
    -11.978  0.2685E+00  0.8253E+01
    -11.967  0.4123E+01  0.8298E+01
    -11.956  0.9437E+01  0.8400E+01
    -11.945  0.6571E+01  0.8471E+01
    -11.934  0.2455E+01  0.8498E+01
    -11.923  0.6752E+00  0.8505E+01
    -11.913  0.5293E+01  0.8563E+01
    -11.902  0.7866E+01  0.8648E+01
    -11.891  0.1662E+01  0.8666E+01
    -11.880  0.4978E-01  0.8667E+01
    -11.869  0.5924E+00  0.8673E+01
    -11.858  0.8549E+01  0.8766E+01
    -11.847  0.1673E+02  0.8947E+01
    -11.837  0.4675E+01  0.8998E+01
    -11.826  0.1704E+00  0.9000E+01
    -11.815  0.1416E-01  0.9000E+01
    -11.804  0.8379E+00  0.9009E+01
    -11.793  0.6463E+01  0.9079E+01
    -11.782  0.7055E+01  0.9156E+01
    -11.771  0.4326E+01  0.9203E+01
    -11.761  0.1569E+02  0.9373E+01
    -11.750  0.1068E+02  0.9489E+01
    -11.739  0.1630E+01  0.9507E+01
    -11.728  0.8787E+01  0.9602E+01
    -11.717  0.1664E+02  0.9783E+01
    -11.706  0.4507E+01  0.9832E+01
    -11.695  0.1588E+00  0.9833E+01
    -11.685  0.6410E-03  0.9833E+01
    -11.674  0.2733E-06  0.9833E+01
    -11.663  0.4448E-10  0.9833E+01
    -11.652  0.5299E-06  0.9833E+01
    -11.641  0.8734E-03  0.9833E+01
    -11.630  0.1535E+00  0.9835E+01
    -11.620  0.3145E+01  0.9869E+01
    -11.609  0.8555E+01  0.9962E+01
    -11.598  0.3331E+01  0.9998E+01
    -11.587  0.2001E+00  0.1000E+02
    -11.576  0.1261E+01  0.1001E+02
    -11.565  0.7337E+01  0.1009E+02
    -11.554  0.6034E+01  0.1016E+02
    -11.544  0.6900E+00  0.1017E+02
    -11.533  0.3743E-01  0.1017E+02
    -11.522  0.1706E+01  0.1019E+02
    -11.511  0.1300E+02  0.1033E+02
    -11.500  0.1386E+02  0.1048E+02
    -11.489  0.2079E+01  0.1050E+02
    -11.478  0.3898E-01  0.1050E+02
    -11.468  0.2912E-03  0.1050E+02
    -11.457  0.7483E-01  0.1050E+02
    -11.446  0.3006E+01  0.1053E+02
    -11.435  0.1537E+02  0.1070E+02
    -11.424  0.1114E+02  0.1082E+02
    -11.413  0.1116E+01  0.1083E+02
    -11.402  0.1361E-01  0.1083E+02
    -11.392  0.1815E-04  0.1083E+02
    -11.381  0.3454E-08  0.1083E+02
    -11.370  0.8678E-05  0.1083E+02
    -11.359  0.8040E-02  0.1083E+02
    -11.348  0.8086E+00  0.1084E+02
    -11.337  0.9780E+01  0.1095E+02
    -11.327  0.1619E+02  0.1112E+02
    -11.316  0.4517E+01  0.1117E+02
    -11.305  0.9317E+01  0.1127E+02
    -11.294  0.1647E+02  0.1145E+02
    -11.283  0.4204E+01  0.1150E+02
    -11.272  0.1391E+00  0.1150E+02
    -11.261  0.5256E-03  0.1150E+02
    -11.251  0.2094E-06  0.1150E+02
    -11.240  0.8437E-11  0.1150E+02
    -11.229  0.0000E+00  0.1150E+02
    -11.218  0.0000E+00  0.1150E+02
    -11.207  0.0000E+00  0.1150E+02
    -11.196  0.0000E+00  0.1150E+02
    -11.185  0.0000E+00  0.1150E+02
    -11.175  0.0000E+00  0.1150E+02
    -11.164  0.0000E+00  0.1150E+02
    -11.153  0.0000E+00  0.1150E+02
    -11.142  0.0000E+00  0.1150E+02
    -11.131  0.0000E+00  0.1150E+02
    -11.120  0.0000E+00  0.1150E+02
    -11.110  0.0000E+00  0.1150E+02
    -11.099  0.0000E+00  0.1150E+02
    -11.088  0.1035E-11  0.1150E+02
    -11.077  0.3412E-07  0.1150E+02
    -11.066  0.1134E-03  0.1150E+02
    -11.055  0.3943E-01  0.1150E+02
    -11.044  0.1547E+01  0.1152E+02
    -11.034  0.7737E+01  0.1160E+02
    -11.023  0.5490E+01  0.1166E+02
    -11.012  0.5377E+00  0.1167E+02
    -11.001  0.6402E-02  0.1167E+02
    -10.990  0.8328E-05  0.1167E+02
    -10.979  0.1116E-08  0.1167E+02
    -10.968  0.1535E-13  0.1167E+02
    -10.958  0.0000E+00  0.1167E+02
    -10.947  0.0000E+00  0.1167E+02
    -10.936  0.0000E+00  0.1167E+02
    -10.925  0.0000E+00  0.1167E+02
    -10.914  0.0000E+00  0.1167E+02
    -10.903  0.0000E+00  0.1167E+02
    -10.892  0.0000E+00  0.1167E+02
    -10.882  0.0000E+00  0.1167E+02
    -10.871  0.0000E+00  0.1167E+02
    -10.860  0.0000E+00  0.1167E+02
    -10.849  0.3999E-12  0.1167E+02
    -10.838  0.1592E-07  0.1167E+02
    -10.827  0.6370E-04  0.1167E+02
    -10.817  0.2658E-01  0.1167E+02
    -10.806  0.1241E+01  0.1168E+02
    -10.795  0.7306E+01  0.1176E+02
    -10.784  0.6073E+01  0.1183E+02
    -10.773  0.7022E+00  0.1183E+02
    -10.762  0.9975E-02  0.1183E+02
    -10.751  0.1559E-04  0.1183E+02
    -10.741  0.2517E-08  0.1183E+02
    -10.730  0.4092E-13  0.1183E+02
    -10.719  0.0000E+00  0.1183E+02
    -10.708  0.0000E+00  0.1183E+02
    -10.697  0.0000E+00  0.1183E+02
    -10.686  0.0000E+00  0.1183E+02
    -10.675  0.8355E-13  0.1183E+02
    -10.665  0.4494E-08  0.1183E+02
    -10.654  0.2431E-04  0.1183E+02
    -10.643  0.1363E-01  0.1183E+02
    -10.632  0.8444E+00  0.1184E+02
    -10.621  0.6479E+01  0.1191E+02
    -10.610  0.6953E+01  0.1199E+02
    -10.599  0.1049E+01  0.1200E+02
    -10.589  0.1980E-01  0.1200E+02
    -10.578  0.4157E-04  0.1200E+02
    -10.567  0.9077E-08  0.1200E+02
    -10.556  0.1978E-12  0.1200E+02
    -10.545  0.0000E+00  0.1200E+02
    -10.534  0.0000E+00  0.1200E+02
    -10.524  0.0000E+00  0.1200E+02
    -10.513  0.0000E+00  0.1200E+02
    -10.502  0.0000E+00  0.1200E+02
    -10.491  0.0000E+00  0.1200E+02
    -10.480  0.0000E+00  0.1200E+02
    -10.469  0.0000E+00  0.1200E+02
    -10.458  0.0000E+00  0.1200E+02
    -10.448  0.0000E+00  0.1200E+02
    -10.437  0.0000E+00  0.1200E+02
    -10.426  0.0000E+00  0.1200E+02
    -10.415  0.0000E+00  0.1200E+02
    -10.404  0.0000E+00  0.1200E+02
    -10.393  0.0000E+00  0.1200E+02
    -10.382  0.0000E+00  0.1200E+02
    -10.372  0.0000E+00  0.1200E+02
    -10.361  0.0000E+00  0.1200E+02
    -10.350  0.0000E+00  0.1200E+02
    -10.339  0.0000E+00  0.1200E+02
    -10.328  0.0000E+00  0.1200E+02
    -10.317  0.0000E+00  0.1200E+02
    -10.306  0.0000E+00  0.1200E+02
    -10.296  0.2004E-12  0.1200E+02
    -10.285  0.9136E-08  0.1200E+02
    -10.274  0.4178E-04  0.1200E+02
    -10.263  0.1986E-01  0.1200E+02
    -10.252  0.1051E+01  0.1201E+02
    -10.241  0.6957E+01  0.1209E+02
    -10.231  0.6475E+01  0.1216E+02
    -10.220  0.8426E+00  0.1217E+02
    -10.209  0.1358E-01  0.1217E+02
    -10.198  0.2884E-04  0.1217E+02
    -10.187  0.4226E-02  0.1217E+02
    -10.176  0.4170E+00  0.1217E+02
    -10.165  0.4954E+01  0.1222E+02
    -10.155  0.8188E+01  0.1231E+02
    -10.144  0.4742E+01  0.1237E+02
    -10.133  0.8584E+01  0.1246E+02
    -10.122  0.3621E+01  0.1250E+02
    -10.111  0.2059E+00  0.1250E+02
    -10.100  0.1378E-02  0.1250E+02
    -10.089  0.9875E-06  0.1250E+02
    -10.079  0.7216E-10  0.1250E+02
    -10.068  0.0000E+00  0.1250E+02
    -10.057  0.0000E+00  0.1250E+02
    -10.046  0.0000E+00  0.1250E+02
    -10.035  0.0000E+00  0.1250E+02
    -10.024  0.0000E+00  0.1250E+02
    -10.014  0.0000E+00  0.1250E+02
    -10.003  0.0000E+00  0.1250E+02
     -9.992  0.0000E+00  0.1250E+02
     -9.981  0.0000E+00  0.1250E+02
     -9.970  0.0000E+00  0.1250E+02
     -9.959  0.0000E+00  0.1250E+02
     -9.948  0.0000E+00  0.1250E+02
     -9.938  0.0000E+00  0.1250E+02
     -9.927  0.0000E+00  0.1250E+02
     -9.916  0.0000E+00  0.1250E+02
     -9.905  0.0000E+00  0.1250E+02
     -9.894  0.0000E+00  0.1250E+02
     -9.883  0.0000E+00  0.1250E+02
     -9.872  0.0000E+00  0.1250E+02
     -9.862  0.0000E+00  0.1250E+02
     -9.851  0.0000E+00  0.1250E+02
     -9.840  0.0000E+00  0.1250E+02
     -9.829  0.0000E+00  0.1250E+02
     -9.818  0.0000E+00  0.1250E+02
     -9.807  0.1023E-13  0.1250E+02
     -9.796  0.9313E-09  0.1250E+02
     -9.786  0.8467E-05  0.1250E+02
     -9.775  0.7899E-02  0.1250E+02
     -9.764  0.7998E+00  0.1251E+02
     -9.753  0.9736E+01  0.1261E+02
     -9.742  0.1621E+02  0.1279E+02
     -9.731  0.3845E+01  0.1283E+02
     -9.721  0.1176E+00  0.1283E+02
     -9.710  0.4094E-03  0.1283E+02
     -9.699  0.1499E-06  0.1283E+02
     -9.688  0.5542E-11  0.1283E+02
     -9.677  0.0000E+00  0.1283E+02
     -9.666  0.0000E+00  0.1283E+02
     -9.655  0.0000E+00  0.1283E+02
     -9.645  0.2319E-12  0.1283E+02
     -9.634  0.1172E-07  0.1283E+02
     -9.623  0.5954E-04  0.1283E+02
     -9.612  0.3139E-01  0.1283E+02
     -9.601  0.1834E+01  0.1285E+02
     -9.590  0.1332E+02  0.1300E+02
     -9.579  0.1356E+02  0.1315E+02
     -9.569  0.1937E+01  0.1317E+02
     -9.558  0.3502E-01  0.1317E+02
     -9.547  0.1149E+00  0.1317E+02
     -9.536  0.2724E+01  0.1320E+02
     -9.525  0.8498E+01  0.1329E+02
     -9.514  0.3793E+01  0.1333E+02
     -9.503  0.2458E+00  0.1333E+02
     -9.493  0.1337E+01  0.1335E+02
     -9.482  0.1230E+02  0.1348E+02
     -9.471  0.2171E+02  0.1372E+02
     -9.460  0.1963E+02  0.1393E+02
     -9.449  0.6296E+01  0.1400E+02
     -9.438  0.4681E+01  0.1405E+02
     -9.428  0.1658E+02  0.1423E+02
     -9.417  0.9086E+01  0.1433E+02
     -9.406  0.3729E+01  0.1437E+02
     -9.395  0.8557E+01  0.1446E+02
     -9.384  0.3405E+01  0.1450E+02
     -9.373  0.1809E+00  0.1450E+02
     -9.362  0.1126E-02  0.1450E+02
     -9.352  0.7497E-06  0.1450E+02
     -9.341  0.5081E-10  0.1450E+02
     -9.330  0.1876E-13  0.1450E+02
     -9.319  0.1516E-08  0.1450E+02
     -9.308  0.1235E-04  0.1450E+02
     -9.297  0.1035E-01  0.1450E+02
     -9.286  0.9446E+00  0.1451E+02
     -9.276  0.1043E+02  0.1462E+02
     -9.265  0.1583E+02  0.1480E+02
     -9.254  0.3415E+01  0.1483E+02
     -9.243  0.9440E-01  0.1483E+02
     -9.232  0.2955E-03  0.1483E+02
     -9.221  0.4791E-06  0.1483E+02
     -9.210  0.8226E-03  0.1483E+02
     -9.200  0.1878E+00  0.1484E+02
     -9.189  0.5021E+01  0.1489E+02
     -9.178  0.1950E+02  0.1510E+02
     -9.167  0.1673E+02  0.1528E+02
     -9.156  0.4396E+01  0.1533E+02
     -9.145  0.2393E+00  0.1533E+02
     -9.135  0.1698E-02  0.1533E+02
     -9.124  0.1312E-05  0.1533E+02
     -9.113  0.1037E-09  0.1533E+02
     -9.102  0.0000E+00  0.1533E+02
     -9.091  0.5346E-11  0.1533E+02
     -9.080  0.1456E-06  0.1533E+02
     -9.069  0.4006E-03  0.1533E+02
     -9.059  0.1159E+00  0.1533E+02
     -9.048  0.3816E+01  0.1538E+02
     -9.037  0.1619E+02  0.1555E+02
     -9.026  0.9842E+01  0.1566E+02
     -9.015  0.3469E+01  0.1570E+02
     -9.004  0.1488E+02  0.1586E+02
     -8.993  0.1180E+02  0.1599E+02
     -8.983  0.1303E+01  0.1600E+02
     -8.972  0.1770E-01  0.1600E+02
     -8.961  0.2650E-04  0.1600E+02
     -8.950  0.4118E-08  0.1600E+02
     -8.939  0.1274E-06  0.1600E+02
     -8.928  0.3043E-03  0.1600E+02
     -8.918  0.7700E-01  0.1600E+02
     -8.907  0.2314E+01  0.1603E+02
     -8.896  0.1185E+02  0.1615E+02
     -8.885  0.2040E+02  0.1638E+02
     -8.874  0.1053E+02  0.1649E+02
     -8.863  0.1265E+01  0.1650E+02
     -8.852  0.5071E+01  0.1656E+02
     -8.842  0.1426E+02  0.1671E+02
     -8.831  0.1785E+02  0.1691E+02
     -8.820  0.7870E+01  0.1699E+02
     -8.809  0.6675E+00  0.1700E+02
     -8.798  0.1892E-01  0.1700E+02
     -8.787  0.9813E+00  0.1701E+02
     -8.776  0.1059E+02  0.1713E+02
     -8.766  0.1573E+02  0.1730E+02
     -8.755  0.3320E+01  0.1733E+02
     -8.744  0.2053E+00  0.1733E+02
     -8.733  0.2733E+01  0.1736E+02
     -8.722  0.8500E+01  0.1746E+02
     -8.711  0.3782E+01  0.1750E+02
     -8.700  0.2261E+00  0.1750E+02
     -8.690  0.5243E-02  0.1750E+02
     -8.679  0.4927E+00  0.1751E+02
     -8.668  0.7868E+01  0.1759E+02
     -8.657  0.1693E+02  0.1777E+02
     -8.646  0.5210E+01  0.1783E+02
     -8.635  0.2106E+00  0.1783E+02
     -8.625  0.4415E-01  0.1783E+02
     -8.614  0.1177E+01  0.1785E+02
     -8.603  0.4185E+01  0.1789E+02
     -8.592  0.2153E+01  0.1792E+02
     -8.581  0.1400E+01  0.1793E+02
     -8.570  0.7328E+01  0.1801E+02
     -8.559  0.6047E+01  0.1808E+02
     -8.549  0.6949E+00  0.1808E+02
     -8.538  0.1487E+00  0.1808E+02
     -8.527  0.3080E+01  0.1812E+02
     -8.516  0.1529E+02  0.1828E+02
     -8.505  0.1698E+02  0.1847E+02
     -8.494  0.5838E+01  0.1853E+02
     -8.483  0.3954E+01  0.1857E+02
     -8.473  0.7804E+00  0.1858E+02
     -8.462  0.2007E-01  0.1858E+02
     -8.451  0.3013E-01  0.1858E+02
     -8.440  0.2313E+01  0.1861E+02
     -8.429  0.2232E+02  0.1885E+02
     -8.418  0.3054E+02  0.1918E+02
     -8.407  0.6075E+01  0.1925E+02
     -8.397  0.1582E+00  0.1925E+02
     -8.386  0.4780E-03  0.1925E+02
     -8.375  0.1552E-06  0.1925E+02
     -8.364  0.5191E-11  0.1925E+02
     -8.353  0.0000E+00  0.1925E+02
     -8.342  0.0000E+00  0.1925E+02
     -8.332  0.0000E+00  0.1925E+02
     -8.321  0.0000E+00  0.1925E+02
     -8.310  0.5627E-13  0.1925E+02
     -8.299  0.3268E-08  0.1925E+02
     -8.288  0.1904E-04  0.1925E+02
     -8.277  0.1148E-01  0.1925E+02
     -8.266  0.7634E+00  0.1926E+02
     -8.256  0.6257E+01  0.1933E+02
     -8.245  0.7151E+01  0.1940E+02
     -8.234  0.1152E+01  0.1942E+02
     -8.223  0.2331E-01  0.1942E+02
     -8.212  0.5266E-04  0.1942E+02
     -8.201  0.1238E-07  0.1942E+02
     -8.190  0.5866E-12  0.1942E+02
     -8.180  0.1423E-07  0.1942E+02
     -8.169  0.6906E-04  0.1942E+02
     -8.158  0.3481E-01  0.1942E+02
     -8.147  0.1948E+01  0.1944E+02
     -8.136  0.1358E+02  0.1959E+02
     -8.125  0.1330E+02  0.1973E+02
     -8.114  0.1824E+01  0.1975E+02
     -8.104  0.3108E-01  0.1975E+02
     -8.093  0.5870E-04  0.1975E+02
     -8.082  0.1150E-07  0.1975E+02
     -8.071  0.2251E-12  0.1975E+02
     -8.060  0.0000E+00  0.1975E+02
     -8.049  0.0000E+00  0.1975E+02
     -8.039  0.4263E-14  0.1975E+02
     -8.028  0.3854E-09  0.1975E+02
     -8.017  0.3655E-05  0.1975E+02
     -8.006  0.3554E-02  0.1975E+02
     -7.995  0.3746E+00  0.1975E+02
     -7.984  0.4735E+01  0.1981E+02
     -7.973  0.8171E+01  0.1989E+02
     -7.963  0.2010E+01  0.1992E+02
     -7.952  0.6393E-01  0.1992E+02
     -7.941  0.2318E-03  0.1992E+02
     -7.930  0.1864E-04  0.1992E+02
     -7.919  0.1383E-01  0.1992E+02
     -7.908  0.1127E+01  0.1993E+02
     -7.897  0.1118E+02  0.2005E+02
     -7.887  0.1534E+02  0.2022E+02
     -7.876  0.2983E+01  0.2025E+02
     -7.865  0.7381E-01  0.2025E+02
     -7.854  0.2057E-03  0.2025E+02
     -7.843  0.5999E-07  0.2025E+02
     -7.832  0.1760E-11  0.2025E+02
     -7.822  0.0000E+00  0.2025E+02
     -7.811  0.0000E+00  0.2025E+02
     -7.800  0.0000E+00  0.2025E+02
     -7.789  0.0000E+00  0.2025E+02
     -7.778  0.0000E+00  0.2025E+02
     -7.767  0.0000E+00  0.2025E+02
     -7.756  0.0000E+00  0.2025E+02
     -7.746  0.0000E+00  0.2025E+02
     -7.735  0.0000E+00  0.2025E+02
     -7.724  0.0000E+00  0.2025E+02
     -7.713  0.0000E+00  0.2025E+02
     -7.702  0.0000E+00  0.2025E+02
     -7.691  0.0000E+00  0.2025E+02
     -7.680  0.0000E+00  0.2025E+02
     -7.670  0.0000E+00  0.2025E+02
     -7.659  0.0000E+00  0.2025E+02
     -7.648  0.0000E+00  0.2025E+02
     -7.637  0.0000E+00  0.2025E+02
     -7.626  0.0000E+00  0.2025E+02
     -7.615  0.0000E+00  0.2025E+02
     -7.604  0.0000E+00  0.2025E+02
     -7.594  0.0000E+00  0.2025E+02
     -7.583  0.1705E-14  0.2025E+02
     -7.572  0.2105E-09  0.2025E+02
     -7.561  0.2655E-05  0.2025E+02
     -7.550  0.3418E-02  0.2025E+02
     -7.539  0.4726E+00  0.2026E+02
     -7.529  0.7720E+01  0.2034E+02
     -7.518  0.1697E+02  0.2052E+02
     -7.507  0.5334E+01  0.2058E+02
     -7.496  0.2203E+00  0.2058E+02
     -7.485  0.1052E-02  0.2058E+02
     -7.474  0.2863E-05  0.2058E+02
     -7.463  0.3109E-02  0.2058E+02
     -7.453  0.4449E+00  0.2059E+02
     -7.442  0.7512E+01  0.2067E+02
     -7.431  0.1766E+02  0.2086E+02
     -7.420  0.1440E+02  0.2102E+02
     -7.409  0.1684E+02  0.2120E+02
     -7.398  0.4430E+01  0.2125E+02
     -7.387  0.1536E+00  0.2125E+02
     -7.377  0.6099E-03  0.2125E+02
     -7.366  0.2556E-06  0.2125E+02
     -7.355  0.1084E-10  0.2125E+02
     -7.344  0.0000E+00  0.2125E+02
     -7.333  0.0000E+00  0.2125E+02
     -7.322  0.0000E+00  0.2125E+02
     -7.311  0.0000E+00  0.2125E+02
     -7.301  0.0000E+00  0.2125E+02
     -7.290  0.0000E+00  0.2125E+02
     -7.279  0.3410E-14  0.2125E+02
     -7.268  0.3446E-09  0.2125E+02
     -7.257  0.3350E-05  0.2125E+02
     -7.246  0.3339E-02  0.2125E+02
     -7.236  0.3603E+00  0.2125E+02
     -7.225  0.4657E+01  0.2130E+02
     -7.214  0.8208E+01  0.2139E+02
     -7.203  0.2063E+01  0.2142E+02
     -7.192  0.6713E-01  0.2142E+02
     -7.181  0.2493E-03  0.2142E+02
     -7.170  0.9755E-07  0.2142E+02
     -7.160  0.3859E-11  0.2142E+02
     -7.149  0.0000E+00  0.2142E+02
     -7.138  0.0000E+00  0.2142E+02
     -7.127  0.0000E+00  0.2142E+02
     -7.116  0.0000E+00  0.2142E+02
     -7.105  0.0000E+00  0.2142E+02
     -7.094  0.0000E+00  0.2142E+02
     -7.084  0.1705E-14  0.2142E+02
     -7.073  0.1597E-09  0.2142E+02
     -7.062  0.1840E-05  0.2142E+02
     -7.051  0.2166E-02  0.2142E+02
     -7.040  0.2746E+00  0.2142E+02
     -7.029  0.4133E+01  0.2146E+02
     -7.018  0.8410E+01  0.2156E+02
     -7.008  0.2446E+01  0.2158E+02
     -6.997  0.9297E-01  0.2158E+02
     -6.986  0.4066E-03  0.2158E+02
     -6.975  0.1882E-06  0.2158E+02
     -6.964  0.1029E-10  0.2158E+02
     -6.953  0.4519E-07  0.2158E+02
     -6.943  0.1401E-03  0.2158E+02
     -6.932  0.4552E-01  0.2158E+02
     -6.921  0.1674E+01  0.2160E+02
     -6.910  0.7889E+01  0.2169E+02
     -6.899  0.5961E+01  0.2175E+02
     -6.888  0.6522E+01  0.2182E+02