 vasp.5.4.4.18Apr17-6-g9f103f2a35 (build Jun 20 2017 18:00:50) complex          
  
 executed on             LinuxIFC date 2018.03.16  15:59:44
 running on   32 total cores
 distrk:  each k-point on   32 cores,    1 groups
 distr:  one band on NCORES_PER_BAND=   8 cores,    4 groups


--------------------------------------------------------------------------------------------------------


 INCAR:
 POTCAR:    PAW_PBE P 06Sep2000                   
 POTCAR:    PAW_PBE P 06Sep2000                   
   VRHFIN =P : s2p3                                                             
   LEXCH  = PE                                                                  
   EATOM  =   176.0430 eV,   12.9388 Ry                                         
                                                                                
   TITEL  = PAW_PBE P 06Sep2000                                                 
   LULTRA =        F    use ultrasoft PP ?                                      
   IUNSCR =        1    unscreen: 0-lin 1-nonlin 2-no                           
   RPACOR =    1.500    partial core radius                                     
   POMASS =   30.974; ZVAL   =    5.000    mass and valenz                      
   RCORE  =    1.900    outmost cutoff radius                                   
   RWIGS  =    2.330; RWIGS  =    1.233    wigner-seitz radius (au A)           
   ENMAX  =  255.040; ENMIN  =  191.280 eV                                      
   ICORE  =        2    local potential                                         
   LCOR   =        T    correct aug charges                                     
   LPAW   =        T    paw PP                                                  
   EAUG   =  342.924                                                            
   DEXC   =    0.000                                                            
   RMAX   =    1.935    core radius for proj-oper                               
   RAUG   =    1.300    factor for augmentation sphere                          
   RDEP   =    1.931    radius for radial grids                                 
   RDEPT  =    1.794    core radius for aug-charge                              
                                                                                
   Atomic configuration                                                         
    6 entries                                                                   
     n  l   j            E        occ.                                          
     1  0  0.50     -2084.0982   2.0000                                         
     2  0  0.50      -173.9859   2.0000                                         
     2  1  1.50      -124.4865   6.0000                                         
     3  0  0.50       -13.9692   2.0000                                         
     3  1  0.50        -5.5067   3.0000                                         
     3  2  1.50        -5.4423   0.0000                                         
   Description                                                                  
     l       E           TYP  RCUT    TYP  RCUT                                 
     0    -13.9691527     23  1.900                                             
     0    -11.7794650     23  1.900                                             
     1     -5.5066937     23  1.900                                             
     1     -0.2556953     23  1.900                                             
     2     -5.4423304     23  1.900                                             
  local pseudopotential read in
  partial core-charges read in
  partial kinetic energy density read in
  atomic valenz-charges read in
  non local Contribution for L=           0  read in
    real space projection operators read in
  non local Contribution for L=           0  read in
    real space projection operators read in
  non local Contribution for L=           1  read in
    real space projection operators read in
  non local Contribution for L=           1  read in
    real space projection operators read in
    PAW grid and wavefunctions read in
 
   number of l-projection  operators is LMAX  =           4
   number of lm-projection operators is LMMAX =           8
 
  PAW_PBE P 06Sep2000                   :
 energy of atom  1       EATOM= -176.0430
 kinetic energy error for atom=    0.0006 (will be added to EATOM!!)
 
 
 POSCAR: P12                                     
  positions in direct lattice
  No initial velocities read in
 exchange correlation table for  LEXCH =        8
   RHO(1)=    0.500       N(1)  =     2000
   RHO(2)=  100.500       N(2)  =     4000
 


--------------------------------------------------------------------------------------------------------


 ion  position               nearest neighbor table
   1  0.000  0.307  0.919-   2 2.23   2 2.23   3 2.26
   2  0.500  0.307  0.581-   1 2.23   1 2.23   4 2.26
   3  0.000  0.372  0.081-   4 2.23   4 2.23   1 2.26
   4  0.500  0.372  0.419-   3 2.23   3 2.23   2 2.26
   5  0.500  0.467  0.919-   6 2.23   6 2.23   7 2.26
   6  0.000  0.467  0.581-   5 2.23   5 2.23   8 2.26
   7  0.500  0.533  0.081-   8 2.23   8 2.23   5 2.26
   8  0.000  0.533  0.419-   7 2.23   7 2.23   6 2.26
   9  0.000  0.628  0.919-  10 2.23  10 2.23  11 2.26
  10  0.500  0.628  0.581-   9 2.23   9 2.23  12 2.26
  11  0.000  0.693  0.081-  12 2.23  12 2.23   9 2.26
  12  0.500  0.693  0.419-  11 2.23  11 2.23  10 2.26
 
  LATTYP: Found a simple orthorhombic cell.
 ALAT       =     3.3428860000
 B/A-ratio  =     1.3086988309
 C/A-ratio  =     9.7527732026
  
  Lattice vectors:
  
 A1 = (  -3.3428860000,   0.0000000000,   0.0000000000)
 A2 = (   0.0000000000,   0.0000000000,  -4.3748310000)
 A3 = (   0.0000000000, -32.6024090000,   0.0000000000)


Analysis of symmetry for initial positions (statically):
=====================================================================
 Subroutine PRICEL returns:
 Original cell was already a primitive cell.
 

 Routine SETGRP: Setting up the symmetry group for a 
 simple orthorhombic supercell.


 Subroutine GETGRP returns: Found  8 space group operations
 (whereof  4 operations were pure point group operations)
 out of a pool of  8 trial point group operations.


The static configuration has the point symmetry C_2h.
 The point group associated with its full space group is D_2h.


Analysis of symmetry for dynamics (positions and initial velocities):
=====================================================================
 Subroutine PRICEL returns:
 Original cell was already a primitive cell.
 

 Routine SETGRP: Setting up the symmetry group for a 
 simple orthorhombic supercell.


 Subroutine GETGRP returns: Found  8 space group operations
 (whereof  4 operations were pure point group operations)
 out of a pool of  8 trial point group operations.


The dynamic configuration has the point symmetry C_2h.
 The point group associated with its full space group is D_2h.


 Subroutine INISYM returns: Found  8 space group operations
 (whereof  4 operations are pure point group operations),
 and found     1 'primitive' translations

 
 
 KPOINTS: Automatic mesh                          

Automatic generation of k-mesh.
Space group operators:
 irot       det(A)        alpha          n_x          n_y          n_z        tau_x        tau_y        tau_z
    1     1.000000     0.000001     1.000000     0.000000     0.000000     0.000000     0.000000     0.000000
    2    -1.000000     0.000001     1.000000     0.000000     0.000000     0.000000     0.000000     0.000000
    3     1.000000   179.999999     1.000000     0.000000     0.000000     0.000000     0.000000     0.000000
    4    -1.000000   179.999999     1.000000     0.000000     0.000000     0.000000     0.000000     0.000000
    5     1.000000   179.999999     0.000000     1.000000     0.000000    -0.500000     0.000000    -0.500000
    6    -1.000000   179.999999     0.000000     1.000000     0.000000    -0.500000     0.000000    -0.500000
    7     1.000000   179.999999     0.000000     0.000000     1.000000    -0.500000     0.000000    -0.500000
    8    -1.000000   179.999999     0.000000     0.000000     1.000000    -0.500000     0.000000    -0.500000
 
 Subroutine IBZKPT returns following result:
 ===========================================
 
 Found     12 irreducible k-points:
 
 Following reciprocal coordinates:
            Coordinates               Weight
  0.000000  0.000000  0.000000      1.000000
  0.166667  0.000000  0.000000      2.000000
  0.333333  0.000000  0.000000      2.000000
  0.500000  0.000000  0.000000      1.000000
  0.000000  0.000000  0.250000      2.000000
  0.166667  0.000000  0.250000      4.000000
  0.333333  0.000000  0.250000      4.000000
  0.500000  0.000000  0.250000      2.000000
  0.000000  0.000000  0.500000      1.000000
  0.166667  0.000000  0.500000      2.000000
  0.333333  0.000000  0.500000      2.000000
  0.500000  0.000000  0.500000      1.000000
 
 Following cartesian coordinates:
            Coordinates               Weight
  0.000000  0.000000  0.000000      1.000000
  0.049857  0.000000  0.000000      2.000000
  0.099714  0.000000  0.000000      2.000000
  0.149571  0.000000  0.000000      1.000000
  0.000000  0.000000  0.057145      2.000000
  0.049857  0.000000  0.057145      4.000000
  0.099714  0.000000  0.057145      4.000000
  0.149571  0.000000  0.057145      2.000000
  0.000000  0.000000  0.114290      1.000000
  0.049857  0.000000  0.114290      2.000000
  0.099714  0.000000  0.114290      2.000000
  0.149571  0.000000  0.114290      1.000000
 


--------------------------------------------------------------------------------------------------------




 Dimension of arrays:
   k-points           NKPTS =     12   k-points in BZ     NKDIM =     12   number of bands    NBANDS=     40
   number of dos      NEDOS =   2000   number of ions     NIONS =     12
   non local maximal  LDIM  =      4   non local SUM 2l+1 LMDIM =      8
   total plane-waves  NPLWV = 109760
   max r-space proj   IRMAX =      1   max aug-charges    IRDMAX=   7204
   dimension x,y,z NGX =    20 NGY =  196 NGZ =   28
   dimension x,y,z NGXF=    40 NGYF=  392 NGZF=   56
   support grid    NGXF=    40 NGYF=  392 NGZF=   56
   ions per type =              12
   NGX,Y,Z   is equivalent  to a cutoff of   9.95,  9.99, 10.64 a.u.
   NGXF,Y,Z  is equivalent  to a cutoff of  19.89, 19.99, 21.28 a.u.

 SYSTEM =  Generic Input                           
 POSCAR =  P12                                     

 Startparameter for this run:
   NWRITE =      2    write-flag & timer
   PREC   = normal    normal or accurate (medium, high low for compatibility)
   ISTART =      0    job   : 0-new  1-cont  2-samecut
   ICHARG =      2    charge: 1-file 2-atom 10-const
   ISPIN  =      1    spin polarized calculation?
   LNONCOLLINEAR =      F non collinear calculations
   LSORBIT =      F    spin-orbit coupling
   INIWAV =      1    electr: 0-lowe 1-rand  2-diag
   LASPH  =      T    aspherical Exc in radial PAW
   METAGGA=      F    non-selfconsistent MetaGGA calc.

 Electronic Relaxation 1
   ENCUT  =  600.0 eV  44.10 Ry    6.64 a.u.   6.68 65.12  8.74*2*pi/ulx,y,z
   ENINI  =  600.0     initial cutoff
   ENAUG  =  342.9 eV  augmentation charge cutoff
   NELM   =    200;   NELMIN=  2; NELMDL=  0     # of ELM steps 
   EDIFF  = 0.1E-04   stopping-criterion for ELM
   LREAL  =      F    real-space projection
   NLSPLINE    = F    spline interpolate recip. space projectors
   LCOMPAT=      F    compatible to vasp.4.4
   GGA_COMPAT  = T    GGA compatible to vasp.4.4-vasp.4.6
   LMAXPAW     = -100 max onsite density
   LMAXMIX     =    2 max onsite mixed and CHGCAR
   VOSKOWN=      0    Vosko Wilk Nusair interpolation
   ROPT   =    0.00000
 Ionic relaxation
   EDIFFG = -.2E-01   stopping-criterion for IOM
   NSW    =      0    number of steps for IOM
   NBLOCK =      1;   KBLOCK =      1    inner block; outer block 
   IBRION =     -1    ionic relax: 0-MD 1-quasi-New 2-CG
   NFREE  =      1    steps in history (QN), initial steepest desc. (CG)
   ISIF   =      3    stress and relaxation
   IWAVPR =     11    prediction:  0-non 1-charg 2-wave 3-comb
   ISYM   =      2    0-nonsym 1-usesym 2-fastsym
   LCORR  =      T    Harris-Foulkes like correction to forces

   POTIM  = 0.5000    time-step for ionic-motion
   TEIN   =    0.0    initial temperature
   TEBEG  =    0.0;   TEEND  =   0.0 temperature during run
   SMASS  =  -3.00    Nose mass-parameter (am)
   estimated Nose-frequenzy (Omega)   =  0.10E-29 period in steps =****** mass=  -0.255E-27a.u.
   SCALEE = 1.0000    scale energy and forces
   NPACO  =    256;   APACO  = 16.0  distance and # of slots for P.C.
   PSTRESS=    0.0 pullay stress

  Mass of Ions in am
   POMASS =  30.97
  Ionic Valenz
   ZVAL   =   5.00
  Atomic Wigner-Seitz radii
   RWIGS  =  -1.00
  virtual crystal weights 
   VCA    =   1.00
   NELECT =      60.0000    total number of electrons
   NUPDOWN=      -1.0000    fix difference up-down

 DOS related values:
   EMIN   =  10.00;   EMAX   =-10.00  energy-range for DOS
   EFERMI =   0.00
   ISMEAR =     0;   SIGMA  =   0.01  broadening in eV -4-tet -1-fermi 0-gaus

 Electronic relaxation 2 (details)
   IALGO  =     38    algorithm
   LDIAG  =      T    sub-space diagonalisation (order eigenvalues)
   LSUBROT=      F    optimize rotation matrix (better conditioning)
   TURBO    =      0    0=normal 1=particle mesh
   IRESTART =      0    0=no restart 2=restart with 2 vectors
   NREBOOT  =      0    no. of reboots
   NMIN     =      0    reboot dimension
   EREF     =   0.00    reference energy to select bands
   IMIX   =      4    mixing-type and parameters
     AMIX     =   0.40;   BMIX     =  1.00
     AMIX_MAG =   1.60;   BMIX_MAG =  1.00
     AMIN     =   0.10
     WC   =   100.;   INIMIX=   1;  MIXPRE=   1;  MAXMIX= -45

 Intra band minimization:
   WEIMIN = 0.0000     energy-eigenvalue tresh-hold
   EBREAK =  0.63E-07  absolut break condition
   DEPER  =   0.30     relativ break condition  

   TIME   =   0.40     timestep for ELM

  volume/ion in A,a.u.               =      39.73       268.13
  Fermi-wavevector in a.u.,A,eV,Ry     =   0.820379  1.550291  9.157011  0.673021
  Thomas-Fermi vector in A             =   1.931350
 
 Write flags
   LWAVE        =      T    write WAVECAR
   LDOWNSAMPLE  =      F    k-point downsampling of WAVECAR
   LCHARG       =      T    write CHGCAR
   LVTOT        =      F    write LOCPOT, total local potential
   LVHAR        =      T    write LOCPOT, Hartree potential only
   LELF         =      F    write electronic localiz. function (ELF)
   LORBIT       =     11    0 simple, 1 ext, 2 COOP (PROOUT), +10 PAW based schemes


 Dipole corrections
   LMONO  =      F    monopole corrections only (constant potential shift)
   LDIPOL =      F    correct potential (dipole corrections)
   IDIPOL =      0    1-x, 2-y, 3-z, 4-all directions 
   EPSILON=  1.0000000 bulk dielectric constant

 Core level calculations are selected ICORELEVEL =  1
 Exchange correlation treatment:
   GGA     =    PE    GGA type
   LEXCH   =     8    internal setting for exchange type
   VOSKOWN=      0    Vosko Wilk Nusair interpolation
   LHFCALC =     F    Hartree Fock is set to
   LHFONE  =     F    Hartree Fock one center treatment
   AEXX    =    0.0000 exact exchange contribution

 Linear response parameters
   LEPSILON=     F    determine dielectric tensor
   LRPA    =     F    only Hartree local field effects (RPA)
   LNABLA  =     F    use nabla operator in PAW spheres
   LVEL    =     F    velocity operator in full k-point grid
   LINTERFAST=   F  fast interpolation
   KINTER  =     0    interpolate to denser k-point grid
   CSHIFT  =0.1000    complex shift for real part using Kramers Kronig
   OMEGAMAX=  -1.0    maximum frequency
   DEG_THRESHOLD= 0.2000000E-02 threshold for treating states as degnerate
   RTIME   =   -0.100 relaxation time in fs
  (WPLASMAI=    0.000 imaginary part of plasma frequency in eV, 0.658/RTIME)
   DFIELD  = 0.0000000 0.0000000 0.0000000 field for delta impulse in time
 
 Orbital magnetization related:
   ORBITALMAG=     F  switch on orbital magnetization
   LCHIMAG   =     F  perturbation theory with respect to B field
   DQ        =  0.001000  dq finite difference perturbation B field
   LLRAUG    =     F  two centre corrections for induced B field



--------------------------------------------------------------------------------------------------------


 Static calculation
 charge density and potential will be updated during run
 non-spin polarized calculation
 Variant of blocked Davidson
 Davidson routine will perform the subspace rotation
 perform sub-space diagonalisation
    after iterative eigenvector-optimisation
 modified Broyden-mixing scheme, WC =      100.0
 initial mixing is a Kerker type mixing with AMIX =  0.4000 and BMIX =      1.0000
 Hartree-type preconditioning will be used
 using additional bands           10
 reciprocal scheme for non local part
 use partial core corrections
 calculate Harris-corrections to forces 
   (improved forces if not selfconsistent)
 use gradient corrections 
 use of overlap-Matrix (Vanderbilt PP)
 Gauss-broadening in eV      SIGMA  =   0.01


--------------------------------------------------------------------------------------------------------


  energy-cutoff  :      600.00
  volume of cell :      476.80
      direct lattice vectors                 reciprocal lattice vectors
     3.342886000  0.000000000  0.000000000     0.299142717  0.000000000  0.000000000
     0.000000000 32.602409000  0.000000000     0.000000000  0.030672580  0.000000000
     0.000000000  0.000000000  4.374831000     0.000000000  0.000000000  0.228580258

  length of vectors
     3.342886000 32.602409000  4.374831000     0.299142717  0.030672580  0.228580258


 
 k-points in units of 2pi/SCALE and weight: Automatic mesh                          
   0.00000000  0.00000000  0.00000000       0.042
   0.04985712  0.00000000  0.00000000       0.083
   0.09971424  0.00000000  0.00000000       0.083
   0.14957136  0.00000000  0.00000000       0.042
   0.00000000  0.00000000  0.05714506       0.083
   0.04985712  0.00000000  0.05714506       0.167
   0.09971424  0.00000000  0.05714506       0.167
   0.14957136  0.00000000  0.05714506       0.083
   0.00000000  0.00000000  0.11429013       0.042
   0.04985712  0.00000000  0.11429013       0.083
   0.09971424  0.00000000  0.11429013       0.083
   0.14957136  0.00000000  0.11429013       0.042
 
 k-points in reciprocal lattice and weights: Automatic mesh                          
   0.00000000  0.00000000  0.00000000       0.042
   0.16666667  0.00000000  0.00000000       0.083
   0.33333333  0.00000000  0.00000000       0.083
   0.50000000  0.00000000  0.00000000       0.042
   0.00000000  0.00000000  0.25000000       0.083
   0.16666667  0.00000000  0.25000000       0.167
   0.33333333  0.00000000  0.25000000       0.167
   0.50000000  0.00000000  0.25000000       0.083
   0.00000000  0.00000000  0.50000000       0.042
   0.16666667  0.00000000  0.50000000       0.083
   0.33333333  0.00000000  0.50000000       0.083
   0.50000000  0.00000000  0.50000000       0.042
 
 position of ions in fractional coordinates (direct lattice) 
   0.00000000  0.30672600  0.91892400
   0.50000000  0.30672600  0.58107600
   0.00000000  0.37246700  0.08107600
   0.50000000  0.37246700  0.41892400
   0.50000000  0.46712900  0.91892400
   0.00000000  0.46712900  0.58107600
   0.50000000  0.53287100  0.08107600
   0.00000000  0.53287100  0.41892400
   0.00000000  0.62753300  0.91892400
   0.50000000  0.62753300  0.58107600
   0.00000000  0.69327400  0.08107600
   0.50000000  0.69327400  0.41892400
 
 position of ions in cartesian coordinates  (Angst):
   0.00000000 10.00000650  4.02013720
   1.67144300 10.00000650  2.54210930
   0.00000000 12.14332147  0.35469380
   1.67144300 12.14332147  1.83272170
   1.67144300 15.22953071  4.02013720
   0.00000000 15.22953071  2.54210930
   1.67144300 17.37287829  0.35469380
   0.00000000 17.37287829  1.83272170
   0.00000000 20.45908753  4.02013720
   1.67144300 20.45908753  2.54210930
   0.00000000 22.60240250  0.35469380
   1.67144300 22.60240250  1.83272170
 


--------------------------------------------------------------------------------------------------------


 k-point  1 :   0.0000 0.0000 0.0000  plane waves:   15851
 k-point  2 :   0.1667 0.0000 0.0000  plane waves:   15935
 k-point  3 :   0.3333 0.0000 0.0000  plane waves:   15928
 k-point  4 :   0.5000 0.0000 0.0000  plane waves:   15886
 k-point  5 :   0.0000 0.0000 0.2500  plane waves:   15963
 k-point  6 :   0.1667 0.0000 0.2500  plane waves:   15907
 k-point  7 :   0.3333 0.0000 0.2500  plane waves:   15862
 k-point  8 :   0.5000 0.0000 0.2500  plane waves:   15900
 k-point  9 :   0.0000 0.0000 0.5000  plane waves:   16026
 k-point 10 :   0.1667 0.0000 0.5000  plane waves:   15928
 k-point 11 :   0.3333 0.0000 0.5000  plane waves:   15884
 k-point 12 :   0.5000 0.0000 0.5000  plane waves:   15856

 maximum and minimum number of plane-waves per node :      2023     1951

 maximum number of plane-waves:     16026
 maximum index in each direction: 
   IXMAX=    6   IYMAX=   65   IZMAX=    8
   IXMIN=   -7   IYMIN=  -65   IZMIN=   -9


 parallel 3D FFT for wavefunctions:
    minimum data exchange during FFTs selected (reduces bandwidth)
 parallel 3D FFT for charge:
    minimum data exchange during FFTs selected (reduces bandwidth)


 total amount of memory used by VASP MPI-rank0    40551. kBytes
=======================================================================

   base      :      30000. kBytes
   nonl-proj :       1935. kBytes
   fftplans  :       1884. kBytes
   grid      :       2825. kBytes
   one-center:          6. kBytes
   wavefun   :       3901. kBytes
 
     INWAV:  cpu time    0.0000: real time    0.0000
 Broyden mixing: mesh for mixing (old mesh)
   NGX = 13   NGY =131   NGZ = 17
  (NGX  = 40   NGY  =392   NGZ  = 56)
  gives a total of  28951 points

 initial charge density was supplied:
 charge density of overlapping atoms calculated
 number of electron      60.0000000 magnetization 
 keeping initial charge density in first step


--------------------------------------------------------------------------------------------------------


 Maximum index for augmentation-charges          680 (set IRDMAX)


--------------------------------------------------------------------------------------------------------


 First call to EWALD:  gamma=   0.227
 Maximum number of real-space cells 6x 1x 5
 Maximum number of reciprocal cells 1x10x 2

    FEWALD:  cpu time    0.0017: real time    0.0017


--------------------------------------- Iteration      1(   1)  ---------------------------------------


    POTLOK:  cpu time    0.0455: real time    0.0474
    SETDIJ:  cpu time    0.0645: real time    0.0645
     EDDAV:  cpu time    0.7171: real time    0.7190
       DOS:  cpu time    0.0005: real time    0.0006
    --------------------------------------------
      LOOP:  cpu time    0.8277: real time    0.8315

 eigenvalue-minimisations  :   960
 total energy-change (2. order) : 0.4026852E+03  (-0.2383461E+04)
 number of electron      60.0000000 magnetization 
 augmentation part       60.0000000 magnetization 

 Free energy of the ion-electron system (eV)
  ---------------------------------------------------
  alpha Z        PSCENC =        30.28014394
  Ewald energy   TEWEN  =     14973.24208224
  -Hartree energ DENC   =    -16928.93300519
  -exchange      EXHF   =         0.00000000
  -V(xc)+E(xc)   XCENC  =        40.33409997
  PAW double counting   =      1677.12035881    -1579.18296132
  entropy T*S    EENTRO =        -0.00000000
  eigenvalues    EBANDS =        77.31565884
  atomic energy  EATOM  =      2112.50885871
  Solvation  Ediel_sol  =         0.00000000
  ---------------------------------------------------
  free energy    TOTEN  =       402.68523599 eV

  energy without entropy =      402.68523599  energy(sigma->0) =      402.68523599


--------------------------------------------------------------------------------------------------------




--------------------------------------- Iteration      1(   2)  ---------------------------------------


     EDDAV:  cpu time    0.8806: real time    0.8816
       DOS:  cpu time    0.0004: real time    0.0004
    --------------------------------------------
      LOOP:  cpu time    0.8809: real time    0.8820

 eigenvalue-minimisations  :  1328
 total energy-change (2. order) :-0.4201080E+03  (-0.4050120E+03)
 number of electron      60.0000000 magnetization 
 augmentation part       60.0000000 magnetization 

 Free energy of the ion-electron system (eV)
  ---------------------------------------------------
  alpha Z        PSCENC =        30.28014394
  Ewald energy   TEWEN  =     14973.24208224
  -Hartree energ DENC   =    -16928.93300519
  -exchange      EXHF   =         0.00000000
  -V(xc)+E(xc)   XCENC  =        40.33409997
  PAW double counting   =      1677.12035881    -1579.18296132
  entropy T*S    EENTRO =        -0.00000000
  eigenvalues    EBANDS =      -342.79238612
  atomic energy  EATOM  =      2112.50885871
  Solvation  Ediel_sol  =         0.00000000
  ---------------------------------------------------
  free energy    TOTEN  =       -17.42280896 eV

  energy without entropy =      -17.42280896  energy(sigma->0) =      -17.42280896


--------------------------------------------------------------------------------------------------------




--------------------------------------- Iteration      1(   3)  ---------------------------------------


     EDDAV:  cpu time    0.8046: real time    0.8055
       DOS:  cpu time    0.0004: real time    0.0004
    --------------------------------------------
      LOOP:  cpu time    0.8050: real time    0.8059

 eigenvalue-minimisations  :  1144
 total energy-change (2. order) :-0.4555977E+02  (-0.4475285E+02)
 number of electron      60.0000000 magnetization 
 augmentation part       60.0000000 magnetization 

 Free energy of the ion-electron system (eV)
  ---------------------------------------------------
  alpha Z        PSCENC =        30.28014394
  Ewald energy   TEWEN  =     14973.24208224
  -Hartree energ DENC   =    -16928.93300519
  -exchange      EXHF   =         0.00000000
  -V(xc)+E(xc)   XCENC  =        40.33409997
  PAW double counting   =      1677.12035881    -1579.18296132
  entropy T*S    EENTRO =        -0.00000000
  eigenvalues    EBANDS =      -388.35215824
  atomic energy  EATOM  =      2112.50885871
  Solvation  Ediel_sol  =         0.00000000
  ---------------------------------------------------
  free energy    TOTEN  =       -62.98258108 eV

  energy without entropy =      -62.98258108  energy(sigma->0) =      -62.98258108


--------------------------------------------------------------------------------------------------------




--------------------------------------- Iteration      1(   4)  ---------------------------------------


     EDDAV:  cpu time    0.9366: real time    0.9390
       DOS:  cpu time    0.0004: real time    0.0004
    --------------------------------------------
      LOOP:  cpu time    0.9370: real time    0.9394

 eigenvalue-minimisations  :  1440
 total energy-change (2. order) :-0.1792394E+01  (-0.1781379E+01)
 number of electron      60.0000000 magnetization 
 augmentation part       60.0000000 magnetization 

 Free energy of the ion-electron system (eV)
  ---------------------------------------------------
  alpha Z        PSCENC =        30.28014394
  Ewald energy   TEWEN  =     14973.24208224
  -Hartree energ DENC   =    -16928.93300519
  -exchange      EXHF   =         0.00000000
  -V(xc)+E(xc)   XCENC  =        40.33409997
  PAW double counting   =      1677.12035881    -1579.18296132
  entropy T*S    EENTRO =        -0.00000000
  eigenvalues    EBANDS =      -390.14455256
  atomic energy  EATOM  =      2112.50885871
  Solvation  Ediel_sol  =         0.00000000
  ---------------------------------------------------
  free energy    TOTEN  =       -64.77497540 eV

  energy without entropy =      -64.77497540  energy(sigma->0) =      -64.77497540


--------------------------------------------------------------------------------------------------------




--------------------------------------- Iteration      1(   5)  ---------------------------------------


     EDDAV:  cpu time    0.9360: real time    0.9387
       DOS:  cpu time    0.0004: real time    0.0004
    CHARGE:  cpu time    0.0466: real time    0.0466
    MIXING:  cpu time    0.0008: real time    0.0009
    --------------------------------------------
      LOOP:  cpu time    0.9838: real time    0.9865

 eigenvalue-minimisations  :  1456
 total energy-change (2. order) :-0.3936587E-01  (-0.3933543E-01)
 number of electron      59.9999999 magnetization 
 augmentation part       -6.5200041 magnetization 

 Broyden mixing:
  rms(total) = 0.17523E+01    rms(broyden)= 0.17523E+01
  rms(prec ) = 0.17578E+01
  weight for this iteration     100.00

 Free energy of the ion-electron system (eV)
  ---------------------------------------------------
  alpha Z        PSCENC =        30.28014394
  Ewald energy   TEWEN  =     14973.24208224
  -Hartree energ DENC   =    -16928.93300519
  -exchange      EXHF   =         0.00000000
  -V(xc)+E(xc)   XCENC  =        40.33409997
  PAW double counting   =      1677.12035881    -1579.18296132
  entropy T*S    EENTRO =        -0.00000000
  eigenvalues    EBANDS =      -390.18391843
  atomic energy  EATOM  =      2112.50885871
  Solvation  Ediel_sol  =         0.00000000
  ---------------------------------------------------
  free energy    TOTEN  =       -64.81434128 eV

  energy without entropy =      -64.81434128  energy(sigma->0) =      -64.81434128


--------------------------------------------------------------------------------------------------------




--------------------------------------- Iteration      1(   6)  ---------------------------------------


    POTLOK:  cpu time    0.0263: real time    0.0264
    SETDIJ:  cpu time    0.0644: real time    0.0648
     EDDAV:  cpu time    0.8514: real time    0.8523
       DOS:  cpu time    0.0004: real time    0.0004
    CHARGE:  cpu time    0.0466: real time    0.0466
    MIXING:  cpu time    0.0008: real time    0.0009
    --------------------------------------------
      LOOP:  cpu time    0.9899: real time    0.9914

 eigenvalue-minimisations  :  1272
 total energy-change (2. order) : 0.3246758E+00  (-0.1965800E-01)
 number of electron      59.9999999 magnetization 
 augmentation part       -6.4821482 magnetization 

 Broyden mixing:
  rms(total) = 0.10383E+01    rms(broyden)= 0.10383E+01
  rms(prec ) = 0.10415E+01
  weight for this iteration     100.00

 eigenvalues of (default mixing * dielectric matrix)
  average eigenvalue GAMMA=   2.4462
  2.4462

 Free energy of the ion-electron system (eV)
  ---------------------------------------------------
  alpha Z        PSCENC =        30.28014394
  Ewald energy   TEWEN  =     14973.24208224
  -Hartree energ DENC   =    -16941.13110652
  -exchange      EXHF   =         0.00000000
  -V(xc)+E(xc)   XCENC  =        41.37727116
  PAW double counting   =      3129.39434836    -3031.91922974
  entropy T*S    EENTRO =        -0.00000000
  eigenvalues    EBANDS =      -378.24203360
  atomic energy  EATOM  =      2112.50885871
  Solvation  Ediel_sol  =         0.00000000
  ---------------------------------------------------
  free energy    TOTEN  =       -64.48966544 eV

  energy without entropy =      -64.48966544  energy(sigma->0) =      -64.48966544


--------------------------------------------------------------------------------------------------------




--------------------------------------- Iteration      1(   7)  ---------------------------------------


    POTLOK:  cpu time    0.0245: real time    0.0258
    SETDIJ:  cpu time    0.0649: real time    0.0649
     EDDAV:  cpu time    0.8114: real time    0.8123
       DOS:  cpu time    0.0005: real time    0.0005
    CHARGE:  cpu time    0.0450: real time    0.0450
    MIXING:  cpu time    0.0008: real time    0.0008
    --------------------------------------------
      LOOP:  cpu time    0.9471: real time    0.9494

 eigenvalue-minimisations  :  1200
 total energy-change (2. order) : 0.1493762E+00  (-0.3603587E-01)
 number of electron      59.9999999 magnetization 
 augmentation part       -6.4357331 magnetization 

 Broyden mixing:
  rms(total) = 0.43940E-01    rms(broyden)= 0.43940E-01
  rms(prec ) = 0.45255E-01
  weight for this iteration     100.00

 eigenvalues of (default mixing * dielectric matrix)
  average eigenvalue GAMMA=   2.0615
  1.5929  2.5301

 Free energy of the ion-electron system (eV)
  ---------------------------------------------------
  alpha Z        PSCENC =        30.28014394
  Ewald energy   TEWEN  =     14973.24208224
  -Hartree energ DENC   =    -16959.80554297
  -exchange      EXHF   =         0.00000000
  -V(xc)+E(xc)   XCENC  =        43.06744661
  PAW double counting   =      6224.23870747    -6127.32921140
  entropy T*S    EENTRO =        -0.00000023
  eigenvalues    EBANDS =      -360.54277357
  atomic energy  EATOM  =      2112.50885871
  Solvation  Ediel_sol  =         0.00000000
  ---------------------------------------------------
  free energy    TOTEN  =       -64.34028920 eV

  energy without entropy =      -64.34028897  energy(sigma->0) =      -64.34028909


--------------------------------------------------------------------------------------------------------




--------------------------------------- Iteration      1(   8)  ---------------------------------------


    POTLOK:  cpu time    0.0250: real time    0.0263
    SETDIJ:  cpu time    0.0649: real time    0.0649
     EDDAV:  cpu time    0.8349: real time    0.8358
       DOS:  cpu time    0.0005: real time    0.0005
    CHARGE:  cpu time    0.0483: real time    0.0483
    MIXING:  cpu time    0.0008: real time    0.0008
    --------------------------------------------
      LOOP:  cpu time    0.9743: real time    0.9766

 eigenvalue-minimisations  :  1248
 total energy-change (2. order) : 0.2234276E-03  (-0.3192759E-02)
 number of electron      59.9999999 magnetization 
 augmentation part       -6.4460583 magnetization 

 Broyden mixing:
  rms(total) = 0.22968E-01    rms(broyden)= 0.22968E-01
  rms(prec ) = 0.23659E-01
  weight for this iteration     100.00

 eigenvalues of (default mixing * dielectric matrix)
  average eigenvalue GAMMA=   1.5971
  2.5247  1.0062  1.2604

 Free energy of the ion-electron system (eV)
  ---------------------------------------------------
  alpha Z        PSCENC =        30.28014394
  Ewald energy   TEWEN  =     14973.24208224
  -Hartree energ DENC   =    -16961.07177543
  -exchange      EXHF   =         0.00000000
  -V(xc)+E(xc)   XCENC  =        43.09998307
  PAW double counting   =      6332.76254294    -6235.78048012
  entropy T*S    EENTRO =        -0.00000006
  eigenvalues    EBANDS =      -359.38142106
  atomic energy  EATOM  =      2112.50885871
  Solvation  Ediel_sol  =         0.00000000
  ---------------------------------------------------
  free energy    TOTEN  =       -64.34006578 eV

  energy without entropy =      -64.34006571  energy(sigma->0) =      -64.34006574


--------------------------------------------------------------------------------------------------------




--------------------------------------- Iteration      1(   9)  ---------------------------------------


    POTLOK:  cpu time    0.0247: real time    0.0264
    SETDIJ:  cpu time    0.0648: real time    0.0649
     EDDAV:  cpu time    0.9359: real time    0.9368
       DOS:  cpu time    0.0005: real time    0.0005
    CHARGE:  cpu time    0.0458: real time    0.0458
    MIXING:  cpu time    0.0009: real time    0.0009
    --------------------------------------------
      LOOP:  cpu time    1.0726: real time    1.0753

 eigenvalue-minimisations  :  1416
 total energy-change (2. order) : 0.3055436E-04  (-0.1727211E-03)
 number of electron      59.9999999 magnetization 
 augmentation part       -6.4463866 magnetization 

 Broyden mixing:
  rms(total) = 0.19681E-01    rms(broyden)= 0.19681E-01
  rms(prec ) = 0.20266E-01
  weight for this iteration     100.00

 eigenvalues of (default mixing * dielectric matrix)
  average eigenvalue GAMMA=   1.8402
  2.3038  2.3038  1.3766  1.3766

 Free energy of the ion-electron system (eV)
  ---------------------------------------------------
  alpha Z        PSCENC =        30.28014394
  Ewald energy   TEWEN  =     14973.24208224
  -Hartree energ DENC   =    -16961.84028058
  -exchange      EXHF   =         0.00000000
  -V(xc)+E(xc)   XCENC  =        43.10832099
  PAW double counting   =      6331.07357393    -6234.08446383
  entropy T*S    EENTRO =        -0.00000006
  eigenvalues    EBANDS =      -358.62827056
  atomic energy  EATOM  =      2112.50885871
  Solvation  Ediel_sol  =         0.00000000
  ---------------------------------------------------
  free energy    TOTEN  =       -64.34003522 eV

  energy without entropy =      -64.34003516  energy(sigma->0) =      -64.34003519


--------------------------------------------------------------------------------------------------------




--------------------------------------- Iteration      1(  10)  ---------------------------------------


    POTLOK:  cpu time    0.0248: real time    0.0264
    SETDIJ:  cpu time    0.0649: real time    0.0649
     EDDAV:  cpu time    0.7983: real time    0.7992
       DOS:  cpu time    0.0005: real time    0.0005
    CHARGE:  cpu time    0.0451: real time    0.0451
    MIXING:  cpu time    0.0009: real time    0.0009
    --------------------------------------------
      LOOP:  cpu time    0.9345: real time    0.9369

 eigenvalue-minimisations  :  1184
 total energy-change (2. order) : 0.2514405E-03  (-0.3873625E-04)
 number of electron      59.9999999 magnetization 
 augmentation part       -6.4476400 magnetization 

 Broyden mixing:
  rms(total) = 0.14368E-01    rms(broyden)= 0.14368E-01
  rms(prec ) = 0.14850E-01
  weight for this iteration     100.00

 eigenvalues of (default mixing * dielectric matrix)
  average eigenvalue GAMMA=   1.7705
  2.5267  2.5267  1.5605  1.1193  1.1193

 Free energy of the ion-electron system (eV)
  ---------------------------------------------------
  alpha Z        PSCENC =        30.28014394
  Ewald energy   TEWEN  =     14973.24208224
  -Hartree energ DENC   =    -16962.87720581
  -exchange      EXHF   =         0.00000000
  -V(xc)+E(xc)   XCENC  =        43.09296120
  PAW double counting   =      6257.43862067    -6160.42522233
  entropy T*S    EENTRO =        -0.00000004
  eigenvalues    EBANDS =      -357.60002237
  atomic energy  EATOM  =      2112.50885871
  Solvation  Ediel_sol  =         0.00000000
  ---------------------------------------------------
  free energy    TOTEN  =       -64.33978378 eV

  energy without entropy =      -64.33978375  energy(sigma->0) =      -64.33978376


--------------------------------------------------------------------------------------------------------




--------------------------------------- Iteration      1(  11)  ---------------------------------------


    POTLOK:  cpu time    0.0249: real time    0.0268
    SETDIJ:  cpu time    0.0678: real time    0.0678
     EDDAV:  cpu time    0.9130: real time    0.9139
       DOS:  cpu time    0.0005: real time    0.0005
    CHARGE:  cpu time    0.0462: real time    0.0462
    MIXING:  cpu time    0.0009: real time    0.0009
    --------------------------------------------
      LOOP:  cpu time    1.0534: real time    1.0561

 eigenvalue-minimisations  :  1232
 total energy-change (2. order) : 0.2462455E-03  (-0.3953142E-04)
 number of electron      59.9999999 magnetization 
 augmentation part       -6.4472067 magnetization 

 Broyden mixing:
  rms(total) = 0.46305E-02    rms(broyden)= 0.46305E-02
  rms(prec ) = 0.51706E-02
  weight for this iteration     100.00

 eigenvalues of (default mixing * dielectric matrix)
  average eigenvalue GAMMA=   1.6718
  2.5750  2.5750  1.3111  1.1740  1.1979  1.1979

 Free energy of the ion-electron system (eV)
  ---------------------------------------------------
  alpha Z        PSCENC =        30.28014394
  Ewald energy   TEWEN  =     14973.24208224
  -Hartree energ DENC   =    -16964.77241563
  -exchange      EXHF   =         0.00000000
  -V(xc)+E(xc)   XCENC  =        43.12422737
  PAW double counting   =      6276.00061703    -6178.98197881
  entropy T*S    EENTRO =        -0.00000005
  eigenvalues    EBANDS =      -355.74107233
  atomic energy  EATOM  =      2112.50885871
  Solvation  Ediel_sol  =         0.00000000
  ---------------------------------------------------
  free energy    TOTEN  =       -64.33953754 eV

  energy without entropy =      -64.33953749  energy(sigma->0) =      -64.33953751


--------------------------------------------------------------------------------------------------------




--------------------------------------- Iteration      1(  12)  ---------------------------------------


    POTLOK:  cpu time    0.0250: real time    0.0266
    SETDIJ:  cpu time    0.0646: real time    0.0648
     EDDAV:  cpu time    0.8038: real time    0.8050
       DOS:  cpu time    0.0005: real time    0.0005
    CHARGE:  cpu time    0.0456: real time    0.0457
    MIXING:  cpu time    0.0010: real time    0.0010
    --------------------------------------------
      LOOP:  cpu time    0.9404: real time    0.9435

 eigenvalue-minimisations  :  1192
 total energy-change (2. order) :-0.8738740E-04  (-0.5674958E-05)
 number of electron      59.9999999 magnetization 
 augmentation part       -6.4471421 magnetization 

 Broyden mixing:
  rms(total) = 0.15397E-02    rms(broyden)= 0.15397E-02
  rms(prec ) = 0.23477E-02
  weight for this iteration     100.00

 eigenvalues of (default mixing * dielectric matrix)
  average eigenvalue GAMMA=   1.7878
  3.0339  2.5169  1.7101  1.7101  1.0425  1.2505  1.2505

 Free energy of the ion-electron system (eV)
  ---------------------------------------------------
  alpha Z        PSCENC =        30.28014394
  Ewald energy   TEWEN  =     14973.24208224
  -Hartree energ DENC   =    -16965.51459673
  -exchange      EXHF   =         0.00000000
  -V(xc)+E(xc)   XCENC  =        43.12977213
  PAW double counting   =      6281.34748944    -6184.32879836
  entropy T*S    EENTRO =        -0.00000005
  eigenvalues    EBANDS =      -355.00457624
  atomic energy  EATOM  =      2112.50885871
  Solvation  Ediel_sol  =         0.00000000
  ---------------------------------------------------
  free energy    TOTEN  =       -64.33962492 eV

  energy without entropy =      -64.33962487  energy(sigma->0) =      -64.33962490


--------------------------------------------------------------------------------------------------------




--------------------------------------- Iteration      1(  13)  ---------------------------------------


    POTLOK:  cpu time    0.0251: real time    0.0267
    SETDIJ:  cpu time    0.0647: real time    0.0647
     EDDAV:  cpu time    0.7768: real time    0.7779
       DOS:  cpu time    0.0005: real time    0.0005
    CHARGE:  cpu time    0.0465: real time    0.0466
    MIXING:  cpu time    0.0010: real time    0.0010
    --------------------------------------------
      LOOP:  cpu time    0.9146: real time    0.9174

 eigenvalue-minimisations  :  1120
 total energy-change (2. order) :-0.2282822E-03  (-0.8127120E-05)
 number of electron      59.9999999 magnetization 
 augmentation part       -6.4468763 magnetization 

 Broyden mixing:
  rms(total) = 0.33135E-02    rms(broyden)= 0.33135E-02
  rms(prec ) = 0.34440E-02
  weight for this iteration     100.00

 eigenvalues of (default mixing * dielectric matrix)
  average eigenvalue GAMMA=   1.8212
  3.7323  2.5065  2.3056  1.6769  1.1385  1.1385  1.0356  1.0356

 Free energy of the ion-electron system (eV)
  ---------------------------------------------------
  alpha Z        PSCENC =        30.28014394
  Ewald energy   TEWEN  =     14973.24208224
  -Hartree energ DENC   =    -16966.84554217
  -exchange      EXHF   =         0.00000000
  -V(xc)+E(xc)   XCENC  =        43.14050389
  PAW double counting   =      6289.30140021    -6192.28252968
  entropy T*S    EENTRO =        -0.00000006
  eigenvalues    EBANDS =      -353.68477028
  atomic energy  EATOM  =      2112.50885871
  Solvation  Ediel_sol  =         0.00000000
  ---------------------------------------------------
  free energy    TOTEN  =       -64.33985321 eV

  energy without entropy =      -64.33985315  energy(sigma->0) =      -64.33985318


--------------------------------------------------------------------------------------------------------




--------------------------------------- Iteration      1(  14)  ---------------------------------------


    POTLOK:  cpu time    0.0259: real time    0.0276
    SETDIJ:  cpu time    0.0648: real time    0.0648
     EDDAV:  cpu time    0.7274: real time    0.7281
       DOS:  cpu time    0.0005: real time    0.0005
    CHARGE:  cpu time    0.0471: real time    0.0471
    MIXING:  cpu time    0.0010: real time    0.0010
    --------------------------------------------
      LOOP:  cpu time    0.8666: real time    0.8690

 eigenvalue-minimisations  :  1024
 total energy-change (2. order) :-0.1595815E-03  (-0.2555270E-05)
 number of electron      59.9999999 magnetization 
 augmentation part       -6.4467746 magnetization 

 Broyden mixing:
  rms(total) = 0.31778E-02    rms(broyden)= 0.31778E-02
  rms(prec ) = 0.32373E-02
  weight for this iteration     100.00

 eigenvalues of (default mixing * dielectric matrix)
  average eigenvalue GAMMA=   1.6322
  3.6112  2.4052  2.4052  1.6811  1.1603  1.1603  1.0309  1.0309  0.2045

 Free energy of the ion-electron system (eV)
  ---------------------------------------------------
  alpha Z        PSCENC =        30.28014394
  Ewald energy   TEWEN  =     14973.24208224
  -Hartree energ DENC   =    -16967.39107391
  -exchange      EXHF   =         0.00000000
  -V(xc)+E(xc)   XCENC  =        43.14243950
  PAW double counting   =      6287.17771833    -6190.15897207
  entropy T*S    EENTRO =        -0.00000006
  eigenvalues    EBANDS =      -353.14120946
  atomic energy  EATOM  =      2112.50885871
  Solvation  Ediel_sol  =         0.00000000
  ---------------------------------------------------
  free energy    TOTEN  =       -64.34001279 eV

  energy without entropy =      -64.34001272  energy(sigma->0) =      -64.34001276


--------------------------------------------------------------------------------------------------------




--------------------------------------- Iteration      1(  15)  ---------------------------------------


    POTLOK:  cpu time    0.0252: real time    0.0270
    SETDIJ:  cpu time    0.0647: real time    0.0647
     EDDAV:  cpu time    0.5976: real time    0.5983
       DOS:  cpu time    0.0005: real time    0.0005
    CHARGE:  cpu time    0.0451: real time    0.0451
    MIXING:  cpu time    0.0011: real time    0.0011
    --------------------------------------------
      LOOP:  cpu time    0.7341: real time    0.7366

 eigenvalue-minimisations  :   768
 total energy-change (2. order) :-0.1873026E-04  (-0.1932150E-06)
 number of electron      59.9999999 magnetization 
 augmentation part       -6.4467865 magnetization 

 Broyden mixing:
  rms(total) = 0.26673E-02    rms(broyden)= 0.26673E-02
  rms(prec ) = 0.27343E-02
  weight for this iteration     100.00

 eigenvalues of (default mixing * dielectric matrix)
  average eigenvalue GAMMA=   1.8819
  4.1159  2.4202  2.2772  2.2772  1.8227  1.3255  1.3255  1.1680  1.0435  1.0435

 Free energy of the ion-electron system (eV)
  ---------------------------------------------------
  alpha Z        PSCENC =        30.28014394
  Ewald energy   TEWEN  =     14973.24208224
  -Hartree energ DENC   =    -16967.39907172
  -exchange      EXHF   =         0.00000000
  -V(xc)+E(xc)   XCENC  =        43.14213297
  PAW double counting   =      6286.30811118    -6189.28939754
  entropy T*S    EENTRO =        -0.00000006
  eigenvalues    EBANDS =      -353.13289124
  atomic energy  EATOM  =      2112.50885871
  Solvation  Ediel_sol  =         0.00000000
  ---------------------------------------------------
  free energy    TOTEN  =       -64.34003152 eV

  energy without entropy =      -64.34003145  energy(sigma->0) =      -64.34003149


--------------------------------------------------------------------------------------------------------




--------------------------------------- Iteration      1(  16)  ---------------------------------------


    POTLOK:  cpu time    0.0254: real time    0.0270
    SETDIJ:  cpu time    0.0653: real time    0.0653
     EDDAV:  cpu time    1.0374: real time    1.0576
       DOS:  cpu time    0.0005: real time    0.0005
    CHARGE:  cpu time    0.0463: real time    0.0463
    MIXING:  cpu time    0.0013: real time    0.0013
    --------------------------------------------
      LOOP:  cpu time    1.1760: real time    1.1979

 eigenvalue-minimisations  :   936
 total energy-change (2. order) :-0.2087381E-03  (-0.1791323E-05)
 number of electron      59.9999999 magnetization 
 augmentation part       -6.4467340 magnetization 

 Broyden mixing:
  rms(total) = 0.19858E-02    rms(broyden)= 0.19858E-02
  rms(prec ) = 0.20001E-02
  weight for this iteration     100.00

 eigenvalues of (default mixing * dielectric matrix)
  average eigenvalue GAMMA=   1.9943
  6.5177  2.7829  2.3045  1.9945  1.9945  1.3157  1.3157  1.0983  0.8414  0.8859
  0.8859

 Free energy of the ion-electron system (eV)
  ---------------------------------------------------
  alpha Z        PSCENC =        30.28014394
  Ewald energy   TEWEN  =     14973.24208224
  -Hartree energ DENC   =    -16967.98750437
  -exchange      EXHF   =         0.00000000
  -V(xc)+E(xc)   XCENC  =        43.14183008
  PAW double counting   =      6278.34595365    -6181.32683961
  entropy T*S    EENTRO =        -0.00000007
  eigenvalues    EBANDS =      -352.54476483
  atomic energy  EATOM  =      2112.50885871
  Solvation  Ediel_sol  =         0.00000000
  ---------------------------------------------------
  free energy    TOTEN  =       -64.34024026 eV

  energy without entropy =      -64.34024019  energy(sigma->0) =      -64.34024022


--------------------------------------------------------------------------------------------------------




--------------------------------------- Iteration      1(  17)  ---------------------------------------


    POTLOK:  cpu time    0.0256: real time    0.0273
    SETDIJ:  cpu time    0.0647: real time    0.0648
     EDDAV:  cpu time    0.6346: real time    0.6353
       DOS:  cpu time    0.0005: real time    0.0005
    CHARGE:  cpu time    0.0455: real time    0.0457
    MIXING:  cpu time    0.0012: real time    0.0012
    --------------------------------------------
      LOOP:  cpu time    0.7722: real time    0.7747

 eigenvalue-minimisations  :   840
 total energy-change (2. order) :-0.3376128E-04  (-0.4631881E-06)
 number of electron      59.9999999 magnetization 
 augmentation part       -6.4467361 magnetization 

 Broyden mixing:
  rms(total) = 0.17853E-02    rms(broyden)= 0.17853E-02
  rms(prec ) = 0.17917E-02
  weight for this iteration     100.00

 eigenvalues of (default mixing * dielectric matrix)
  average eigenvalue GAMMA=   1.8325
  6.5244  2.7493  2.1525  2.0263  2.0263  1.3060  1.3060  1.1353  0.8044  0.8446
  0.8446  0.2698

 Free energy of the ion-electron system (eV)
  ---------------------------------------------------
  alpha Z        PSCENC =        30.28014394
  Ewald energy   TEWEN  =     14973.24208224
  -Hartree energ DENC   =    -16968.16666571
  -exchange      EXHF   =         0.00000000
  -V(xc)+E(xc)   XCENC  =        43.14210103
  PAW double counting   =      6278.31927667    -6181.30007788
  entropy T*S    EENTRO =        -0.00000007
  eigenvalues    EBANDS =      -352.36599295
  atomic energy  EATOM  =      2112.50885871
  Solvation  Ediel_sol  =         0.00000000
  ---------------------------------------------------
  free energy    TOTEN  =       -64.34027402 eV

  energy without entropy =      -64.34027395  energy(sigma->0) =      -64.34027398


--------------------------------------------------------------------------------------------------------




--------------------------------------- Iteration      1(  18)  ---------------------------------------


    POTLOK:  cpu time    0.0255: real time    0.0270
    SETDIJ:  cpu time    0.0648: real time    0.0648
     EDDAV:  cpu time    0.5955: real time    0.5962
       DOS:  cpu time    0.0005: real time    0.0005
    --------------------------------------------
      LOOP:  cpu time    0.7691: real time    0.7713

 eigenvalue-minimisations  :   736
 total energy-change (2. order) :-0.9209280E-06  (-0.4241377E-07)
 number of electron      59.9999999 magnetization 
 augmentation part       -6.4467361 magnetization 

 Free energy of the ion-electron system (eV)
  ---------------------------------------------------
  alpha Z        PSCENC =        30.28014394
  Ewald energy   TEWEN  =     14973.24208224
  -Hartree energ DENC   =    -16968.16876812
  -exchange      EXHF   =         0.00000000
  -V(xc)+E(xc)   XCENC  =        43.14214337
  PAW double counting   =      6278.52996569    -6181.51074485
  entropy T*S    EENTRO =        -0.00000007
  eigenvalues    EBANDS =      -352.36395585
  atomic energy  EATOM  =      2112.50885871
  Solvation  Ediel_sol  =         0.00000000
  ---------------------------------------------------
  free energy    TOTEN  =       -64.34027494 eV

  energy without entropy =      -64.34027487  energy(sigma->0) =      -64.34027490


--------------------------------------------------------------------------------------------------------




 the core state eigenenergies are
   1-  1s  -2078.3881  2s   -168.4203  2p   -118.9058
   2-  1s  -2078.3881  2s   -168.4203  2p   -118.9058
   3-  1s  -2078.4475  2s   -168.4736  2p   -118.9597
   4-  1s  -2078.4475  2s   -168.4736  2p   -118.9597
   5-  1s  -2078.4772  2s   -168.5042  2p   -118.9902
   6-  1s  -2078.4772  2s   -168.5042  2p   -118.9902
   7-  1s  -2078.4772  2s   -168.5042  2p   -118.9902
   8-  1s  -2078.4772  2s   -168.5042  2p   -118.9902
   9-  1s  -2078.4475  2s   -168.4736  2p   -118.9597
  10-  1s  -2078.4475  2s   -168.4736  2p   -118.9597
  11-  1s  -2078.3881  2s   -168.4203  2p   -118.9058
  12-  1s  -2078.3881  2s   -168.4203  2p   -118.9058
 
 E-fermi :   0.9389     XC(G=0):  -5.1385     alpha+bet : -5.5572


 k-point     1 :       0.0000    0.0000    0.0000
  band No.  band energies     occupation 
      1     -14.8547      2.00000
      2     -14.7346      2.00000
      3     -14.6658      2.00000
      4     -12.3737      2.00000
      5     -12.1280      2.00000
      6     -11.9482      2.00000
      7      -8.6066      2.00000
      8      -8.5226      2.00000
      9      -8.4923      2.00000
     10      -5.9246      2.00000
     11      -5.5459      2.00000
     12      -5.1276      2.00000
     13      -4.5055      2.00000
     14      -4.5054      2.00000
     15      -4.1879      2.00000
     16      -4.1436      2.00000
     17      -3.9962      2.00000
     18      -3.9220      2.00000
     19      -3.3942      2.00000
     20      -3.2935      2.00000
     21      -3.2436      2.00000
     22      -1.8803      2.00000
     23      -1.7370      2.00000
     24      -1.6252      2.00000
     25      -1.5900      2.00000
     26      -1.5049      2.00000
     27      -1.1085      2.00000
     28      -0.2501      2.00000
     29       0.3536      2.00000
     30       0.9091      1.99997
     31       0.9686      0.00003
     32       1.4963      0.00000
     33       1.5222      0.00000
     34       1.6968      0.00000
     35       1.7044      0.00000
     36       1.8603      0.00000
     37       2.7295      0.00000
     38       2.9000      0.00000
     39       2.9709      0.00000
     40       3.6815      0.00000

 k-point     2 :       0.1667    0.0000    0.0000
  band No.  band energies     occupation 
      1     -14.5313      2.00000
      2     -14.4122      2.00000
      3     -14.3448      2.00000
      4     -12.0371      2.00000
      5     -11.7927      2.00000
      6     -11.6139      2.00000
      7      -8.8993      2.00000
      8      -8.8383      2.00000
      9      -8.8323      2.00000
     10      -5.6516      2.00000
     11      -5.2805      2.00000
     12      -4.9727      2.00000
     13      -4.8918      2.00000
     14      -4.8853      2.00000
     15      -4.8538      2.00000
     16      -4.4289      2.00000
     17      -4.3556      2.00000
     18      -4.3449      2.00000
     19      -4.2194      2.00000
     20      -3.8749      2.00000
     21      -3.7307      2.00000
     22      -2.6620      2.00000
     23      -2.5117      2.00000
     24      -2.3464      2.00000
     25      -1.7423      2.00000
     26      -1.4710      2.00000
     27      -0.9685      2.00000
     28      -0.2142      2.00000
     29       0.1862      2.00000
     30       0.4565      2.00000
     31       1.2519      0.00000
     32       1.6566      0.00000
     33       1.8809      0.00000
     34       2.3384      0.00000
     35       2.5504      0.00000
     36       2.5748      0.00000
     37       3.7493      0.00000
     38       3.8749      0.00000
     39       3.9794      0.00000
     40       4.2546      0.00000

 k-point     3 :       0.3333    0.0000    0.0000
  band No.  band energies     occupation 
      1     -13.5781      2.00000
      2     -13.4633      2.00000
      3     -13.4002      2.00000
      4     -11.0355      2.00000
      5     -10.7958      2.00000
      6     -10.6208      2.00000
      7     -10.2418      2.00000
      8     -10.1627      2.00000
      9     -10.1377      2.00000
     10      -7.2215      2.00000
     11      -7.0254      2.00000
     12      -6.8872      2.00000
     13      -4.9310      2.00000
     14      -4.9060      2.00000
     15      -4.8499      2.00000
     16      -4.8407      2.00000
     17      -4.6056      2.00000
     18      -4.3162      2.00000
     19      -3.4265      2.00000
     20      -3.1572      2.00000
     21      -3.0342      2.00000
     22      -2.6860      2.00000
     23      -2.3965      2.00000
     24      -2.1622      2.00000
     25      -1.7912      2.00000
     26      -1.5221      2.00000
     27      -1.1905      2.00000
     28      -0.8936      2.00000
     29      -0.7538      2.00000
     30      -0.6903      2.00000
     31       1.1107      0.00000
     32       1.1720      0.00000
     33       1.4337      0.00000
     34       2.0729      0.00000
     35       2.2846      0.00000
     36       2.6021      0.00000
     37       2.6454      0.00000
     38       2.6614      0.00000
     39       2.6687      0.00000
     40       2.9498      0.00000

 k-point     4 :       0.5000    0.0000    0.0000
  band No.  band energies     occupation 
      1     -12.0676      2.00000
      2     -12.0676      2.00000
      3     -11.9627      2.00000
      4     -11.9627      2.00000
      5     -11.9103      2.00000
      6     -11.9103      2.00000
      7      -9.4001      2.00000
      8      -9.4001      2.00000
      9      -9.1715      2.00000
     10      -9.1715      2.00000
     11      -9.0053      2.00000
     12      -9.0053      2.00000
     13      -4.4699      2.00000
     14      -4.4699      2.00000
     15      -4.3357      2.00000
     16      -4.3357      2.00000
     17      -4.2900      2.00000
     18      -4.2900      2.00000
     19      -2.4677      2.00000
     20      -2.4677      2.00000
     21      -2.3941      2.00000
     22      -2.3941      2.00000
     23      -2.3937      2.00000
     24      -2.3937      2.00000
     25      -2.0110      2.00000
     26      -2.0110      2.00000
     27      -1.7403      2.00000
     28      -1.7403      2.00000
     29      -1.4882      2.00000
     30      -1.4882      2.00000
     31       1.6187      0.00000
     32       1.6187      0.00000
     33       1.6313      0.00000
     34       1.6313      0.00000
     35       1.7131      0.00000
     36       1.7131      0.00000
     37       2.1548      0.00000
     38       2.1560      0.00000
     39       2.1911      0.00000
     40       2.1929      0.00000

 k-point     5 :       0.0000    0.0000    0.2500
  band No.  band energies     occupation 
      1     -14.5033      2.00000
      2     -14.3904      2.00000
      3     -14.3294      2.00000
      4     -12.5962      2.00000
      5     -12.4624      2.00000
      6     -12.4017      2.00000
      7      -9.0059      2.00000
      8      -8.8492      2.00000
      9      -8.7267      2.00000
     10      -6.9122      2.00000
     11      -6.6394      2.00000
     12      -6.4715      2.00000
     13      -4.5491      2.00000
     14      -4.0382      2.00000
     15      -3.3762      2.00000
     16      -3.1170      2.00000
     17      -3.0638      2.00000
     18      -3.0247      2.00000
     19      -2.9838      2.00000
     20      -2.7188      2.00000
     21      -2.7181      2.00000
     22      -1.8654      2.00000
     23      -1.7649      2.00000
     24      -1.7339      2.00000
     25      -1.7263      2.00000
     26      -1.0752      2.00000
     27      -0.4264      2.00000
     28      -0.2676      2.00000
     29      -0.2051      2.00000
     30      -0.0276      2.00000
     31       1.6790      0.00000
     32       2.0055      0.00000
     33       2.1136      0.00000
     34       2.2068      0.00000
     35       2.2567      0.00000
     36       2.2599      0.00000
     37       2.3677      0.00000
     38       2.7081      0.00000
     39       3.2521      0.00000
     40       3.3365      0.00000

 k-point     6 :       0.1667    0.0000    0.2500
  band No.  band energies     occupation 
      1     -14.1845      2.00000
      2     -14.0728      2.00000
      3     -14.0130      2.00000
      4     -12.2802      2.00000
      5     -12.1509      2.00000
      6     -12.0943      2.00000
      7      -9.0397      2.00000
      8      -8.8875      2.00000
      9      -8.7742      2.00000
     10      -6.7963      2.00000
     11      -6.5667      2.00000
     12      -6.4200      2.00000
     13      -4.9862      2.00000
     14      -4.8456      2.00000
     15      -4.7167      2.00000
     16      -4.5119      2.00000
     17      -4.0380      2.00000
     18      -3.7239      2.00000
     19      -3.3134      2.00000
     20      -3.1980      2.00000
     21      -2.9145      2.00000
     22      -2.3361      2.00000
     23      -2.1653      2.00000
     24      -2.1439      2.00000
     25      -1.4993      2.00000
     26      -0.9519      2.00000
     27      -0.8612      2.00000
     28      -0.7312      2.00000
     29      -0.4608      2.00000
     30      -0.4125      2.00000
     31       2.0274      0.00000
     32       2.3123      0.00000
     33       2.5876      0.00000
     34       2.8628      0.00000
     35       3.0133      0.00000
     36       3.0652      0.00000
     37       3.3731      0.00000
     38       3.4976      0.00000
     39       3.6076      0.00000
     40       4.3297      0.00000

 k-point     7 :       0.3333    0.0000    0.2500
  band No.  band energies     occupation 
      1     -13.2534      2.00000
      2     -13.1463      2.00000
      3     -13.0915      2.00000
      4     -11.4368      2.00000
      5     -11.3346      2.00000
      6     -11.3016      2.00000
      7      -9.7502      2.00000
      8      -9.5902      2.00000
      9      -9.4806      2.00000
     10      -7.5241      2.00000
     11      -7.4371      2.00000
     12      -7.4165      2.00000
     13      -5.8331      2.00000
     14      -5.6653      2.00000
     15      -5.5321      2.00000
     16      -4.7975      2.00000
     17      -4.7534      2.00000
     18      -4.6783      2.00000
     19      -3.3918      2.00000
     20      -3.3112      2.00000
     21      -3.1777      2.00000
     22      -2.5127      2.00000
     23      -2.3686      2.00000
     24      -2.3640      2.00000
     25      -2.2361      2.00000
     26      -1.8480      2.00000
     27      -1.3305      2.00000
     28      -0.9602      2.00000
     29      -0.6602      2.00000
     30      -0.6242      2.00000
     31       1.7033      0.00000
     32       1.8315      0.00000
     33       2.0263      0.00000
     34       2.5145      0.00000
     35       2.7049      0.00000
     36       2.9610      0.00000
     37       3.1521      0.00000
     38       3.3300      0.00000
     39       3.3718      0.00000
     40       3.8739      0.00000

 k-point     8 :       0.5000    0.0000    0.2500
  band No.  band energies     occupation 
      1     -11.8545      2.00000
      2     -11.8545      2.00000
      3     -11.7627      2.00000
      4     -11.7627      2.00000
      5     -11.7245      2.00000
      6     -11.7245      2.00000
      7      -9.4310      2.00000
      8      -9.4310      2.00000
      9      -9.2733      2.00000
     10      -9.2733      2.00000
     11      -9.1819      2.00000
     12      -9.1819      2.00000
     13      -5.0178      2.00000
     14      -5.0178      2.00000
     15      -4.8282      2.00000
     16      -4.8282      2.00000
     17      -4.6765      2.00000
     18      -4.6765      2.00000
     19      -3.6867      2.00000
     20      -3.6867      2.00000
     21      -3.4423      2.00000
     22      -3.4423      2.00000
     23      -3.3092      2.00000
     24      -3.3092      2.00000
     25      -1.5496      2.00000
     26      -1.5496      2.00000
     27      -1.2060      2.00000
     28      -1.2060      2.00000
     29      -0.9102      2.00000
     30      -0.9102      2.00000
     31       2.0050      0.00000
     32       2.0050      0.00000
     33       2.3079      0.00000
     34       2.3079      0.00000
     35       2.4547      0.00000
     36       2.4547      0.00000
     37       3.1796      0.00000
     38       3.1796      0.00000
     39       3.4035      0.00000
     40       3.4035      0.00000

 k-point     9 :       0.0000    0.0000    0.5000
  band No.  band energies     occupation 
      1     -13.5469      2.00000
      2     -13.5469      2.00000
      3     -13.4773      2.00000
      4     -13.4773      2.00000
      5     -13.4309      2.00000
      6     -13.4309      2.00000
      7      -8.5713      2.00000
      8      -8.5713      2.00000
      9      -8.2548      2.00000
     10      -8.2548      2.00000
     11      -7.9812      2.00000
     12      -7.9812      2.00000
     13      -3.5915      2.00000
     14      -3.5915      2.00000
     15      -2.8287      2.00000
     16      -2.8287      2.00000
     17      -2.4230      2.00000
     18      -2.4230      2.00000
     19      -2.3793      2.00000
     20      -2.3793      2.00000
     21      -2.3340      2.00000
     22      -2.3340      2.00000
     23      -2.0236      2.00000
     24      -2.0236      2.00000
     25      -0.7280      2.00000
     26      -0.7280      2.00000
     27      -0.5203      2.00000
     28      -0.5203      2.00000
     29      -0.4478      2.00000
     30      -0.4478      2.00000
     31       2.1897      0.00000
     32       2.1897      0.00000
     33       2.2331      0.00000
     34       2.2331      0.00000
     35       2.2856      0.00000
     36       2.2856      0.00000
     37       3.4173      0.00000
     38       3.4175      0.00000
     39       3.5684      0.00000
     40       3.5957      0.00000

 k-point    10 :       0.1667    0.0000    0.5000
  band No.  band energies     occupation 
      1     -13.2409      2.00000
      2     -13.2409      2.00000
      3     -13.1714      2.00000
      4     -13.1714      2.00000
      5     -13.1260      2.00000
      6     -13.1260      2.00000
      7      -8.4265      2.00000
      8      -8.4265      2.00000
      9      -8.1363      2.00000
     10      -8.1363      2.00000
     11      -7.8957      2.00000
     12      -7.8957      2.00000
     13      -4.3702      2.00000
     14      -4.3702      2.00000
     15      -4.2642      2.00000
     16      -4.2642      2.00000
     17      -4.1660      2.00000
     18      -4.1660      2.00000
     19      -3.3514      2.00000
     20      -3.3514      2.00000
     21      -2.6381      2.00000
     22      -2.6381      2.00000
     23      -1.9683      2.00000
     24      -1.9683      2.00000
     25      -0.8122      2.00000
     26      -0.8122      2.00000
     27      -0.6453      2.00000
     28      -0.6453      2.00000
     29      -0.4919      2.00000
     30      -0.4919      2.00000
     31       2.8448      0.00000
     32       2.8448      0.00000
     33       2.9829      0.00000
     34       2.9829      0.00000
     35       3.0962      0.00000
     36       3.0962      0.00000
     37       3.5133      0.00000
     38       3.5133      0.00000
     39       3.9741      0.00000
     40       3.9741      0.00000

 k-point    11 :       0.3333    0.0000    0.5000
  band No.  band energies     occupation 
      1     -12.3830      2.00000
      2     -12.3830      2.00000
      3     -12.3156      2.00000
      4     -12.3156      2.00000
      5     -12.2755      2.00000
      6     -12.2755      2.00000
      7      -8.6636      2.00000
      8      -8.6636      2.00000
      9      -8.5141      2.00000
     10      -8.5141      2.00000
     11      -8.4283      2.00000
     12      -8.4283      2.00000
     13      -5.7961      2.00000
     14      -5.7961      2.00000
     15      -5.5449      2.00000
     16      -5.5449      2.00000
     17      -5.3202      2.00000
     18      -5.3202      2.00000
     19      -3.4355      2.00000
     20      -3.4355      2.00000
     21      -3.0691      2.00000
     22      -3.0691      2.00000
     23      -2.7859      2.00000
     24      -2.7859      2.00000
     25      -1.8733      2.00000
     26      -1.8733      2.00000
     27      -1.3278      2.00000
     28      -1.3278      2.00000
     29      -0.8288      2.00000
     30      -0.8288      2.00000
     31       2.6918      0.00000
     32       2.6918      0.00000
     33       3.2784      0.00000
     34       3.2784      0.00000
     35       3.9562      0.00000
     36       3.9589      0.00000
     37       3.9830      0.00000
     38       3.9857      0.00000
     39       4.0854      0.00000
     40       4.1075      0.00000

 k-point    12 :       0.5000    0.0000    0.5000
  band No.  band energies     occupation 
      1     -11.5664      2.00000
      2     -11.5664      2.00000
      3     -11.5107      2.00000
      4     -11.5107      2.00000
      5     -11.5106      2.00000
      6     -11.5106      2.00000
      7      -9.5297      2.00000
      8      -9.5297      2.00000
      9      -9.4665      2.00000
     10      -9.4665      2.00000
     11      -9.4652      2.00000
     12      -9.4652      2.00000
     13      -4.9612      2.00000
     14      -4.9612      2.00000
     15      -4.9464      2.00000
     16      -4.9464      2.00000
     17      -4.6715      2.00000
     18      -4.6715      2.00000
     19      -4.6179      2.00000
     20      -4.6179      2.00000
     21      -4.3757      2.00000
     22      -4.3757      2.00000
     23      -4.3750      2.00000
     24      -4.3750      2.00000
     25      -1.2347      2.00000
     26      -1.2347      2.00000
     27      -1.1807      2.00000
     28      -1.1807      2.00000
     29      -1.0523      2.00000
     30      -1.0523      2.00000
     31       2.6254      0.00000
     32       2.6254      0.00000
     33       2.7585      0.00000
     34       2.7585      0.00000
     35       2.8970      0.00000
     36       2.8970      0.00000
     37       4.8128      0.00000
     38       4.8342      0.00000
     39       4.8645      0.00000
     40       4.8653      0.00000


--------------------------------------------------------------------------------------------------------


 soft charge-density along one line, spin component           1
         0         1         2         3         4         5         6         7         8         9
 total charge-density along one line
 
 pseudopotential strength for first ion, spin component:           1
 29.685  37.031   0.035  -0.033   0.000   0.055  -0.052   0.000
 37.031  46.199   0.044  -0.041   0.000   0.068  -0.064   0.000
  0.035   0.044   6.554   0.006  -0.000  10.135   0.009  -0.000
 -0.033  -0.041   0.006   6.558   0.000   0.009  10.141   0.000
  0.000   0.000  -0.000   0.000   6.562  -0.000   0.000  10.148
  0.055   0.068  10.135   0.009  -0.000  15.692   0.014  -0.000
 -0.052  -0.064   0.009  10.141   0.000   0.014  15.701   0.000
  0.000   0.000  -0.000   0.000  10.148  -0.000   0.000  15.711
 total augmentation occupancy for first ion, spin component:           1
  8.274  -4.720   1.855  -1.945  -0.000  -0.591   0.650   0.000
 -4.720   3.434  -1.594   1.651   0.000   0.437  -0.477  -0.000
  1.855  -1.594   3.133   0.195   0.000  -0.826  -0.162   0.000
 -1.945   1.651   0.195   3.274   0.000  -0.161  -0.924   0.000
 -0.000   0.000   0.000   0.000   3.403   0.000   0.000  -1.028
 -0.591   0.437  -0.826  -0.161   0.000   0.260   0.070   0.000
  0.650  -0.477  -0.162  -0.924  -0.000   0.070   0.299  -0.000
  0.000   0.000   0.000   0.000  -1.028   0.000   0.000   0.340


------------------------ aborting loop because EDIFF is reached ----------------------------------------


 


 total charge     
 
# of ion       s       p       d       tot
------------------------------------------
    1        1.082   1.376   0.000   2.458
    2        1.082   1.376   0.000   2.458
    3        1.083   1.372   0.000   2.455
    4        1.083   1.372   0.000   2.455
    5        1.084   1.371   0.000   2.455
    6        1.084   1.371   0.000   2.455
    7        1.084   1.371   0.000   2.455
    8        1.084   1.371   0.000   2.455
    9        1.083   1.372   0.000   2.455
   10        1.083   1.372   0.000   2.455
   11        1.082   1.376   0.000   2.458
   12        1.082   1.376   0.000   2.458
--------------------------------------------------
tot         12.997  16.478   0.000  29.475
 
    CHARGE:  cpu time    0.0468: real time    0.0469
    FORLOC:  cpu time    0.0021: real time    0.0021
    FORNL :  cpu time    0.1901: real time    0.1904
    STRESS:  cpu time    0.2966: real time    0.2967
    FORCOR:  cpu time    0.0261: real time    0.0262
    FORHAR:  cpu time    0.0077: real time    0.0077
    MIXING:  cpu time    0.0013: real time    0.0013
    OFIELD:  cpu time    0.0001: real time    0.0001

  DFT-D2 method for vdW energy calculation
  -------------------------------------------------------------------

  Parameters of vdW forcefield:
         C6(Jnm^6/mol)     R0(A)
   -----------------------------
   P        7.840          1.705

  IVDW =  10
  VDW_RADIUS =    50.000 A
  VDW_S6 =     0.750
  VDW_SR =     1.000
  VDW_D =    20.000
  LVDW_EWALD = F

  Number of pair interactions contributing to vdW energy:   88382
  Edisp (eV):   -2.17394
    FORVDW:  cpu time    0.0523: real time    0.0615

  FORCE on cell =-STRESS in cart. coord.  units (eV):
  Direction    XX          YY          ZZ          XY          YZ          ZX
  --------------------------------------------------------------------------------------
  Alpha Z    30.28014    30.28014    30.28014
  Ewald   16591.01473-18044.25022 16426.47569    -0.00000     0.00000     0.00000
  Hartree 16898.22354-16770.96267 16841.03973    -0.00000    -0.00000    -0.00000
  E(xc)    -201.46801  -202.72656  -201.65829     0.00000     0.00000     0.00000
  Local  -34440.93811 33820.46744-34239.60703    -0.00000     0.00000     0.00000
  n-local   679.68884   678.03576   674.51640     0.00000     0.00000     1.46276
  augment  -126.46751  -130.49584  -128.84136    -0.00000     0.00000    -0.00000
  Kinetic   570.18443   620.10967   600.02834    -0.00000     0.00000     6.08083
  Fock        0.00000     0.00000     0.00000     0.00000     0.00000     0.00000
  vdW        -0.23282    -1.41063    -0.99576    -0.00000    -0.00000     0.00000
  -------------------------------------------------------------------------------------
  Total       0.28524    -0.95291     1.23786     0.00000     0.00000     0.00000
  in kB       0.95850    -3.20207     4.15958     0.00000     0.00000     0.00000
  external pressure =        0.64 kB  Pullay stress =        0.00 kB


 VOLUME and BASIS-vectors are now :
 -----------------------------------------------------------------------------
  energy-cutoff  :      600.00
  volume of cell :      476.80
      direct lattice vectors                 reciprocal lattice vectors
     3.342886000  0.000000000  0.000000000     0.299142717  0.000000000  0.000000000
     0.000000000 32.602409000  0.000000000     0.000000000  0.030672580  0.000000000
     0.000000000  0.000000000  4.374831000     0.000000000  0.000000000  0.228580258

  length of vectors
     3.342886000 32.602409000  4.374831000     0.299142717  0.030672580  0.228580258


 FORCES acting on ions
    electron-ion (+dipol)            ewald-force                    non-local-force                 convergence-correction
 -----------------------------------------------------------------------------------------------
   -.250E-14 0.823E+03 -.291E+02   0.114E-14 -.828E+03 0.342E+02   -.555E-16 0.582E+01 -.517E+01   0.197E-14 -.204E-02 -.437E-03
   0.231E-13 0.823E+03 0.291E+02   -.458E-14 -.828E+03 -.342E+02   0.278E-16 0.582E+01 0.517E+01   -.728E-15 -.204E-02 0.437E-03
   -.176E-14 0.459E+03 0.260E+02   0.181E-14 -.453E+03 -.313E+02   -.278E-16 -.553E+01 0.522E+01   0.434E-14 -.269E-02 -.339E-03
   0.189E-13 0.459E+03 -.260E+02   -.613E-14 -.453E+03 0.313E+02   0.000E+00 -.553E+01 -.522E+01   -.269E-14 -.269E-02 0.339E-03
   0.188E-13 0.183E+03 -.262E+02   0.754E-15 -.189E+03 0.314E+02   0.000E+00 0.546E+01 -.521E+01   -.181E-14 0.365E-02 -.935E-03
   -.363E-14 0.183E+03 0.262E+02   -.638E-14 -.189E+03 -.314E+02   0.000E+00 0.546E+01 0.521E+01   0.121E-14 0.365E-02 0.935E-03
   0.188E-13 -.183E+03 0.262E+02   0.197E-14 0.189E+03 -.314E+02   0.000E+00 -.546E+01 0.521E+01   -.234E-14 -.365E-02 0.935E-03
   -.306E-14 -.183E+03 -.262E+02   -.498E-14 0.189E+03 0.314E+02   0.000E+00 -.546E+01 -.521E+01   0.773E-15 -.365E-02 -.935E-03
   -.166E-14 -.459E+03 -.260E+02   0.911E-15 0.453E+03 0.313E+02   0.278E-16 0.553E+01 -.522E+01   0.105E-14 0.269E-02 0.339E-03
   0.202E-13 -.459E+03 0.260E+02   -.523E-14 0.453E+03 -.313E+02   0.000E+00 0.553E+01 0.522E+01   -.444E-15 0.269E-02 -.339E-03
   -.185E-14 -.823E+03 0.291E+02   0.158E-14 0.828E+03 -.342E+02   0.555E-16 -.582E+01 0.517E+01   -.570E-15 0.204E-02 0.437E-03
   0.233E-13 -.823E+03 -.291E+02   -.679E-14 0.828E+03 0.342E+02   -.278E-16 -.582E+01 -.517E+01   0.183E-14 0.204E-02 -.437E-03
 -----------------------------------------------------------------------------------------------
   0.109E-12 -.105E-11 0.425E-10   -.259E-13 0.000E+00 -.711E-14   0.000E+00 0.178E-14 0.000E+00   0.261E-14 0.161E-12 -.650E-14
 
 
 POSITION                                       TOTAL-FORCE (eV/Angst)
 -----------------------------------------------------------------------------------
      0.00000     10.00001      4.02014         0.000000      0.081752     -0.038452
      1.67144     10.00001      2.54211        -0.000000      0.081752      0.038452
      0.00000     12.14332      0.35469         0.000000     -0.077486     -0.021463
      1.67144     12.14332      1.83272         0.000000     -0.077486      0.021463
      1.67144     15.22953      4.02014         0.000000      0.037757      0.002584
      0.00000     15.22953      2.54211         0.000000      0.037757     -0.002584
      1.67144     17.37288      0.35469         0.000000     -0.037757     -0.002584
      0.00000     17.37288      1.83272         0.000000     -0.037757      0.002584
      0.00000     20.45909      4.02014         0.000000      0.077486      0.021463
      1.67144     20.45909      2.54211        -0.000000      0.077486     -0.021463
      0.00000     22.60240      0.35469         0.000000     -0.081752      0.038452
      1.67144     22.60240      1.83272         0.000000     -0.081752     -0.038452
 -----------------------------------------------------------------------------------
    total drift:                                0.000000     -0.000000      0.000000


--------------------------------------------------------------------------------------------------------



  FREE ENERGIE OF THE ION-ELECTRON SYSTEM (eV)
  ---------------------------------------------------
  free  energy   TOTEN  =       -66.51421446 eV

  energy  without entropy=      -66.51421439  energy(sigma->0) =      -66.51421443
 


--------------------------------------------------------------------------------------------------------


    POTLOK:  cpu time    0.1223: real time    0.1223


--------------------------------------------------------------------------------------------------------


 writing wavefunctions
     LOOP+:  cpu time   19.0617: real time   19.1404
    4ORBIT:  cpu time    0.0000: real time    0.0000
 


 total charge     
 
# of ion       s       p       d       tot
------------------------------------------
    1        1.082   1.376   0.000   2.458
    2        1.082   1.376   0.000   2.458
    3        1.083   1.372   0.000   2.455
    4        1.083   1.372   0.000   2.455
    5        1.084   1.371   0.000   2.455
    6        1.084   1.371   0.000   2.455
    7        1.084   1.371   0.000   2.455
    8        1.084   1.371   0.000   2.455
    9        1.083   1.372   0.000   2.455
   10        1.083   1.372   0.000   2.455
   11        1.082   1.376   0.000   2.458
   12        1.082   1.376   0.000   2.458
--------------------------------------------------
tot         12.997  16.478   0.000  29.475
 

 total amount of memory used by VASP MPI-rank0    40551. kBytes
=======================================================================

   base      :      30000. kBytes
   nonl-proj :       1935. kBytes
   fftplans  :       1884. kBytes
   grid      :       2825. kBytes
   one-center:          6. kBytes
   wavefun   :       3901. kBytes
 
  
  
 General timing and accounting informations for this job:
 ========================================================
  
                  Total CPU time used (sec):       26.639
                            User time (sec):       23.013
                          System time (sec):        3.627
                         Elapsed time (sec):       27.282
  
                   Maximum memory used (kb):      113876.
                   Average memory used (kb):           0.
  
                          Minor page faults:        42488
                          Major page faults:            0
                 Voluntary context switches:         2626
