<?xml version="1.0" encoding="ISO-8859-1"?>
<modeling>
 <generator>
  <i name="program" type="string">vasp </i>
  <i name="version" type="string">5.4.4.18Apr17-6-g9f103f2a35  </i>
  <i name="subversion" type="string">(build Jun 20 2017 18:00:50) complex            parallel </i>
  <i name="platform" type="string">LinuxIFC </i>
  <i name="date" type="string">2018 03 16 </i>
  <i name="time" type="string">15:59:44 </i>
 </generator>
 <incar>
  <i type="string" name="SYSTEM"> Generic Input</i>
  <i type="int" name="ISTART">     1</i>
  <i type="string" name="PREC">normal    ! precision level</i>
  <i type="int" name="IALGO">    53</i>
  <i type="string" name="ALGO"> Normal    ! SCF minimisation algorithm</i>
  <i type="int" name="INIWAV">     1</i>
  <i type="int" name="NELM">   200</i>
  <i type="int" name="NELMIN">     2</i>
  <i type="int" name="IBRION">     2</i>
  <i name="EDIFF">      0.00001000</i>
  <i name="EDIFFG">     -0.02000000</i>
  <i type="int" name="NSW">     0</i>
  <i type="int" name="ISIF">     3</i>
  <i type="int" name="IWAVPR">    11</i>
  <i type="int" name="NBLOCK">     1</i>
  <i type="int" name="KBLOCK">    40</i>
  <i name="ENCUT">    600.00000000</i>
  <i type="int" name="NEDOS">  2000</i>
  <i type="int" name="ISMEAR">     0</i>
  <i name="SIGMA">      0.01000000</i>
  <i type="int" name="NWRITE">     2</i>
  <i type="logical" name="LVHAR"> T  </i>
  <i type="int" name="LORBIT">    11</i>
  <i type="logical" name="LASPH"> T  </i>
  <i type="int" name="ICORELEVEL">     1</i>
  <v type="int" name="KPOINT_BSE">    -1     0     0     0</v>
  <i type="int" name="NELM">   200</i>
  <i type="string" name="GGA"> PE        ! PBEsol exchange-correlation</i>
  <i type="logical" name="LASPH"> T  </i>
 </incar>
 <structure name="primitive_cell" >
  <crystal>
   <varray name="basis" >
    <v>       3.34288600       0.00000000       0.00000000 </v>
    <v>       0.00000000      32.60240900       0.00000000 </v>
    <v>       0.00000000       0.00000000       4.37483100 </v>
   </varray>
   <i name="volume">    476.79592902 </i>
   <varray name="rec_basis" >
    <v>       0.29914272       0.00000000       0.00000000 </v>
    <v>       0.00000000       0.03067258       0.00000000 </v>
    <v>       0.00000000       0.00000000       0.22858026 </v>
   </varray>
  </crystal>
  <varray name="positions" >
   <v>       0.00000000       0.30672600      -0.08107600 </v>
   <v>      -0.50000000       0.30672600      -0.41892400 </v>
   <v>       0.00000000       0.37246700       0.08107600 </v>
   <v>      -0.50000000       0.37246700       0.41892400 </v>
   <v>       0.00000000       0.46712900      -0.41892400 </v>
   <v>      -0.50000000       0.46712900      -0.08107600 </v>
   <v>      -0.50000000      -0.46712900       0.08107600 </v>
   <v>       0.00000000      -0.46712900       0.41892400 </v>
   <v>       0.00000000      -0.37246700      -0.08107600 </v>
   <v>      -0.50000000      -0.37246700      -0.41892400 </v>
   <v>       0.00000000      -0.30672600       0.08107600 </v>
   <v>      -0.50000000      -0.30672600       0.41892400 </v>
  </varray>
 </structure>
 <varray name="primitive_index" >
  <v type="int" >        1 </v>
  <v type="int" >        2 </v>
  <v type="int" >        3 </v>
  <v type="int" >        4 </v>
  <v type="int" >        6 </v>
  <v type="int" >        5 </v>
  <v type="int" >        7 </v>
  <v type="int" >        8 </v>
  <v type="int" >        9 </v>
  <v type="int" >       10 </v>
  <v type="int" >       11 </v>
  <v type="int" >       12 </v>
 </varray>
 <kpoints>
  <generation param="Gamma">
   <v type="int" name="divisions">       6        1        4 </v>
   <v name="usershift">      0.00000000       0.00000000       0.00000000 </v>
   <v name="genvec1">      0.16666667       0.00000000       0.00000000 </v>
   <v name="genvec2">      0.00000000       1.00000000       0.00000000 </v>
   <v name="genvec3">      0.00000000       0.00000000       0.25000000 </v>
   <v name="shift">      0.00000000       0.00000000       0.00000000 </v>
  </generation>
  <varray name="kpointlist" >
   <v>       0.00000000       0.00000000       0.00000000 </v>
   <v>       0.16666667       0.00000000       0.00000000 </v>
   <v>       0.33333333       0.00000000       0.00000000 </v>
   <v>       0.50000000       0.00000000       0.00000000 </v>
   <v>       0.00000000       0.00000000       0.25000000 </v>
   <v>       0.16666667       0.00000000       0.25000000 </v>
   <v>       0.33333333       0.00000000       0.25000000 </v>
   <v>       0.50000000       0.00000000       0.25000000 </v>
   <v>       0.00000000       0.00000000       0.50000000 </v>
   <v>       0.16666667       0.00000000       0.50000000 </v>
   <v>       0.33333333       0.00000000       0.50000000 </v>
   <v>       0.50000000       0.00000000       0.50000000 </v>
  </varray>
  <varray name="weights" >
   <v>       0.04166667 </v>
   <v>       0.08333333 </v>
   <v>       0.08333333 </v>
   <v>       0.04166667 </v>
   <v>       0.08333333 </v>
   <v>       0.16666667 </v>
   <v>       0.16666667 </v>
   <v>       0.08333333 </v>
   <v>       0.04166667 </v>
   <v>       0.08333333 </v>
   <v>       0.08333333 </v>
   <v>       0.04166667 </v>
  </varray>
 </kpoints>
 <parameters>
  <separator name="general" >
   <i type="string" name="SYSTEM">Generic Input</i>
   <i type="logical" name="LCOMPAT"> F  </i>
  </separator>
  <separator name="electronic" >
   <i type="string" name="PREC">normal</i>
   <i name="ENMAX">    600.00000000</i>
   <i name="ENAUG">    342.92400000</i>
   <i name="EDIFF">      0.00001000</i>
   <i type="int" name="IALGO">    38</i>
   <i type="int" name="IWAVPR">    11</i>
   <i type="int" name="NBANDS">    40</i>
   <i name="NELECT">     60.00000000</i>
   <i type="int" name="TURBO">     0</i>
   <i type="int" name="IRESTART">     0</i>
   <i type="int" name="NREBOOT">     0</i>
   <i type="int" name="NMIN">     0</i>
   <i name="EREF">      0.00000000</i>
   <separator name="electronic smearing" >
    <i type="int" name="ISMEAR">     0</i>
    <i name="SIGMA">      0.01000000</i>
    <i name="KSPACING">      0.50000000</i>
    <i type="logical" name="KGAMMA"> T  </i>
   </separator>
   <separator name="electronic projectors" >
    <i type="logical" name="LREAL"> F  </i>
    <v name="ROPT">      0.00000000</v>
    <i type="int" name="LMAXPAW">  -100</i>
    <i type="int" name="LMAXMIX">     2</i>
    <i type="logical" name="NLSPLINE"> F  </i>
   </separator>
   <separator name="electronic startup" >
    <i type="int" name="ISTART">     0</i>
    <i type="int" name="ICHARG">     2</i>
    <i type="int" name="INIWAV">     1</i>
   </separator>
   <separator name="electronic spin" >
    <i type="int" name="ISPIN">     1</i>
    <i type="logical" name="LNONCOLLINEAR"> F  </i>
    <v name="MAGMOM">      1.00000000      1.00000000      1.00000000      1.00000000      1.00000000      1.00000000      1.00000000      1.00000000      1.00000000      1.00000000      1.00000000      1.00000000</v>
    <i name="NUPDOWN">     -1.00000000</i>
    <i type="logical" name="LSORBIT"> F  </i>
    <v name="SAXIS">      0.00000000      0.00000000      1.00000000</v>
    <i type="logical" name="LSPIRAL"> F  </i>
    <v name="QSPIRAL">      0.00000000      0.00000000      0.00000000</v>
    <i type="logical" name="LZEROZ"> F  </i>
   </separator>
   <separator name="electronic exchange-correlation" >
    <i type="logical" name="LASPH"> T  </i>
    <i type="logical" name="LMETAGGA"> F  </i>
   </separator>
   <separator name="electronic convergence" >
    <i type="int" name="NELM">   200</i>
    <i type="int" name="NELMDL">     0</i>
    <i type="int" name="NELMIN">     2</i>
    <i name="ENINI">    600.00000000</i>
    <separator name="electronic convergence detail" >
     <i type="logical" name="LDIAG"> T  </i>
     <i type="logical" name="LSUBROT"> F  </i>
     <i name="WEIMIN">      0.00000000</i>
     <i name="EBREAK">      0.00000006</i>
     <i name="DEPER">      0.30000000</i>
     <i type="int" name="NRMM">     4</i>
     <i name="TIME">      0.40000000</i>
    </separator>
   </separator>
   <separator name="electronic mixer" >
    <i name="AMIX">      0.40000000</i>
    <i name="BMIX">      1.00000000</i>
    <i name="AMIN">      0.10000000</i>
    <i name="AMIX_MAG">      1.60000000</i>
    <i name="BMIX_MAG">      1.00000000</i>
    <separator name="electronic mixer details" >
     <i type="int" name="IMIX">     4</i>
     <i type="logical" name="MIXFIRST"> F  </i>
     <i type="int" name="MAXMIX">   -45</i>
     <i name="WC">    100.00000000</i>
     <i type="int" name="INIMIX">     1</i>
     <i type="int" name="MIXPRE">     1</i>
     <i type="int" name="MREMOVE">     5</i>
    </separator>
   </separator>
   <separator name="electronic dipolcorrection" >
    <i type="logical" name="LDIPOL"> F  </i>
    <i type="logical" name="LMONO"> F  </i>
    <i type="int" name="IDIPOL">     0</i>
    <i name="EPSILON">      1.00000000</i>
    <v name="DIPOL">   -100.00000000   -100.00000000   -100.00000000</v>
    <i name="EFIELD">      0.00000000</i>
   </separator>
  </separator>
  <separator name="grids" >
   <i type="int" name="NGX">    20</i>
   <i type="int" name="NGY">   196</i>
   <i type="int" name="NGZ">    28</i>
   <i type="int" name="NGXF">    40</i>
   <i type="int" name="NGYF">   392</i>
   <i type="int" name="NGZF">    56</i>
   <i type="logical" name="ADDGRID"> F  </i>
  </separator>
  <separator name="ionic" >
   <i type="int" name="NSW">     0</i>
   <i type="int" name="IBRION">    -1</i>
   <i type="int" name="MDALGO">     0</i>
   <i type="int" name="ISIF">     3</i>
   <i name="PSTRESS">      0.00000000</i>
   <i name="EDIFFG">     -0.02000000</i>
   <i type="int" name="NFREE">     1</i>
   <i name="POTIM">      0.50000000</i>
   <i name="SMASS">     -3.00000000</i>
   <i name="SCALEE">      1.00000000</i>
  </separator>
  <separator name="ionic md" >
   <i name="TEBEG">      0.00010000</i>
   <i name="TEEND">      0.00010000</i>
   <i type="int" name="NBLOCK">     1</i>
   <i type="int" name="KBLOCK">     1</i>
   <i type="int" name="NPACO">   256</i>
   <i name="APACO">     16.00000000</i>
  </separator>
  <separator name="symmetry" >
   <i type="int" name="ISYM">     2</i>
   <i name="SYMPREC">      0.00001000</i>
  </separator>
  <separator name="dos" >
   <i type="int" name="LORBIT">    11</i>
   <v name="RWIGS">     -1.00000000</v>
   <i type="int" name="NEDOS">  2000</i>
   <i name="EMIN">     10.00000000</i>
   <i name="EMAX">    -10.00000000</i>
   <i name="EFERMI">      0.00000000</i>
  </separator>
  <separator name="writing" >
   <i type="int" name="NWRITE">     2</i>
   <i type="logical" name="LWAVE"> T  </i>
   <i type="logical" name="LDOWNSAMPLE"> F  </i>
   <i type="logical" name="LCHARG"> T  </i>
   <i type="logical" name="LPARD"> F  </i>
   <i type="logical" name="LVTOT"> F  </i>
   <i type="logical" name="LVHAR"> T  </i>
   <i type="logical" name="LELF"> F  </i>
   <i type="logical" name="LOPTICS"> F  </i>
   <v name="STM">      0.00000000      0.00000000      0.00000000      0.00000000      0.00000000      0.00000000      0.00000000</v>
  </separator>
  <separator name="performance" >
   <i type="int" name="NPAR">     4</i>
   <i type="int" name="NSIM">     4</i>
   <i type="int" name="NBLK">    -1</i>
   <i type="logical" name="LPLANE"> T  </i>
   <i type="logical" name="LSCALAPACK"> T  </i>
   <i type="logical" name="LSCAAWARE"> F  </i>
   <i type="logical" name="LSCALU"> F  </i>
   <i type="logical" name="LASYNC"> F  </i>
   <i type="logical" name="LORBITALREAL"> F  </i>
  </separator>
  <separator name="miscellaneous" >
   <i type="int" name="IDIOT">     3</i>
   <i type="int" name="ISPECIAL">     0</i>
   <i type="logical" name="LMUSIC"> F  </i>
   <v name="POMASS">     30.97400000</v>
   <v name="DARWINR">      0.00000000</v>
   <v name="DARWINV">      1.00000000</v>
   <i type="logical" name="LCORR"> T  </i>
  </separator>
  <i type="logical" name="GGA_COMPAT"> T  </i>
  <i type="logical" name="LBERRY"> F  </i>
  <i type="int" name="ICORELEVEL">     1</i>
  <i type="int" name="CLNT">     1</i>
  <i type="int" name="CLN">     1</i>
  <i type="int" name="CLL">     0</i>
  <i name="CLZ">      0.00000000</i>
  <i type="logical" name="LDAU"> F  </i>
  <i type="int" name="I_CONSTRAINED_M">     0</i>
  <separator name="electronic exchange-correlation" >
   <i type="string" name="GGA">PE</i>
   <i type="int" name="VOSKOWN">     0</i>
   <i type="logical" name="LHFCALC"> F  </i>
   <i type="string" name="PRECFOCK"></i>
   <i type="logical" name="LSYMGRAD"> F  </i>
   <i type="logical" name="LHFONE"> F  </i>
   <i type="logical" name="LRHFCALC"> F  </i>
   <i type="logical" name="LTHOMAS"> F  </i>
   <i type="logical" name="LMODELHF"> F  </i>
   <i name="ENCUT4O">     -1.00000000</i>
   <i type="int" name="EXXOEP">     0</i>
   <i type="int" name="FOURORBIT">     0</i>
   <i name="AEXX">      0.00000000</i>
   <i name="HFALPHA">      0.00000000</i>
   <i name="MCALPHA">      0.00000000</i>
   <i name="ALDAX">      1.00000000</i>
   <i name="AGGAX">      1.00000000</i>
   <i name="ALDAC">      1.00000000</i>
   <i name="AGGAC">      1.00000000</i>
   <i type="int" name="NKREDX">     1</i>
   <i type="int" name="NKREDY">     1</i>
   <i type="int" name="NKREDZ">     1</i>
   <i type="logical" name="SHIFTRED"> F  </i>
   <i type="logical" name="ODDONLY"> F  </i>
   <i type="logical" name="EVENONLY"> F  </i>
   <i type="int" name="LMAXFOCK">     0</i>
   <i type="int" name="NMAXFOCKAE">     0</i>
   <i type="logical" name="LFOCKAEDFT"> F  </i>
   <i name="HFSCREEN">      0.00000000</i>
   <i name="HFSCREENC">      0.00000000</i>
   <i type="int" name="NBANDSGWLOW">     0</i>
  </separator>
  <separator name="vdW DFT" >
   <i type="logical" name="LUSE_VDW"> F  </i>
   <i name="Zab_VDW">     -0.84910000</i>
   <i name="PARAM1">      0.12340000</i>
   <i name="PARAM2">      1.00000000</i>
   <i name="PARAM3">      0.00000000</i>
  </separator>
  <separator name="model GW" >
   <i type="int" name="MODEL_GW">     0</i>
   <i name="MODEL_EPS0">     23.83979645</i>
   <i name="MODEL_ALPHA">      1.00000000</i>
  </separator>
  <separator name="linear response parameters" >
   <i type="logical" name="LEPSILON"> F  </i>
   <i type="logical" name="LRPA"> F  </i>
   <i type="logical" name="LNABLA"> F  </i>
   <i type="logical" name="LVEL"> F  </i>
   <i type="int" name="KINTER">     0</i>
   <i name="CSHIFT">      0.10000000</i>
   <i name="OMEGAMAX">     -1.00000000</i>
   <i name="DEG_THRESHOLD">      0.00200000</i>
   <i name="RTIME">     -0.10000000</i>
   <i name="WPLASMAI">      0.00000000</i>
   <v name="DFIELD">      0.00000000      0.00000000      0.00000000</v>
   <v name="WPLASMA">      0.00000000      0.00000000      0.00000000      0.00000000      0.00000000      0.00000000      0.00000000      0.00000000      0.00000000</v>
  </separator>
  <separator name="orbital magnetization" >
   <i type="logical" name="NUCIND"> F  </i>
   <v name="MAGPOS">      0.00000000      0.00000000      0.00000000</v>
   <i type="logical" name="LNICSALL"> T  </i>
   <i type="logical" name="ORBITALMAG"> F  </i>
   <i type="logical" name="LMAGBLOCH"> F  </i>
   <i type="logical" name="LCHIMAG"> F  </i>
   <i type="logical" name="LGAUGE"> T  </i>
   <i type="int" name="MAGATOM">     0</i>
   <v name="MAGDIPOL">      0.00000000      0.00000000      0.00000000</v>
   <v name="AVECCONST">      0.00000000      0.00000000      0.00000000</v>
  </separator>
  <separator name="response functions" >
   <i type="logical" name="LADDER"> F  </i>
   <i type="logical" name="LRPAFORCE"> F  </i>
   <i type="logical" name="LFXC"> F  </i>
   <i type="logical" name="LHARTREE"> T  </i>
   <i type="int" name="IBSE">     0</i>
   <v type="int" name="KPOINT">    -1     0     0     0</v>
   <i type="logical" name="LTCTE"> F  </i>
   <i type="logical" name="LTETE"> F  </i>
   <i type="logical" name="LTRIPLET"> F  </i>
   <i type="logical" name="LFXCEPS"> F  </i>
   <i type="logical" name="LFXHEG"> F  </i>
   <i type="int" name="NATURALO">     2</i>
   <i type="logical" name="L2ORDER"> F  </i>
   <i type="logical" name="LMP2LT"> F  </i>
   <i type="logical" name="LUSEW"> F  </i>
   <i name="ENCUTGW">     -2.00000000</i>
   <i name="ENCUTGWSOFT">     -2.00000000</i>
   <i name="ENCUTLF">     -1.00000000</i>
   <i type="int" name="LMAXMP2">    -1</i>
   <i name="SCISSOR">      0.00000000</i>
   <i type="int" name="NOMEGA">     0</i>
   <i type="int" name="NOMEGAR">     0</i>
   <i type="int" name="NBANDSGW">    -1</i>
   <i type="int" name="NBANDSO">    -1</i>
   <i type="int" name="NBANDSV">    -1</i>
   <i type="int" name="NELM">   200</i>
   <i type="int" name="NELMHF">     1</i>
   <i type="int" name="DIM">     3</i>
   <i type="int" name="ANTIRES">     0</i>
   <i name="OMEGAMAX">    -30.00000000</i>
   <i name="OMEGAMIN">    -30.00000000</i>
   <i name="OMEGATL">   -200.00000000</i>
   <i type="int" name="OMEGAGRID">   140</i>
   <i name="CSHIFT">     -0.10000000</i>
   <i type="logical" name="SELFENERGY"> F  </i>
   <i type="logical" name="LSPECTRAL"> F  </i>
   <i type="logical" name="LSPECTRALGW"> F  </i>
   <i type="logical" name="LSINGLES"> F  </i>
   <i type="logical" name="LFERMIGW"> F  </i>
   <i type="logical" name="ODDONLYGW"> F  </i>
   <i type="logical" name="EVENONLYGW"> F  </i>
   <i type="int" name="NKREDLFX">     1</i>
   <i type="int" name="NKREDLFY">     1</i>
   <i type="int" name="NKREDLFZ">     1</i>
   <i type="int" name="MAXMEM">  2800</i>
   <i type="int" name="TELESCOPE">     0</i>
   <i type="int" name="TAUPAR">     1</i>
   <i type="int" name="OMEGAPAR">    -1</i>
   <i name="LAMBDA">      1.00000000</i>
  </separator>
  <separator name="External order field" >
   <i name="OFIELD_KAPPA">      0.00000000</i>
   <v name="OFIELD_K">      0.00000000      0.00000000      0.00000000</v>
   <i name="OFIELD_Q6_NEAR">      0.00000000</i>
   <i name="OFIELD_Q6_FAR">      0.00000000</i>
   <i name="OFIELD_A">      0.00000000</i>
  </separator>
 </parameters>
 <atominfo>
  <atoms>      12 </atoms>
  <types>       1 </types>
  <array name="atoms" >
   <dimension dim="1">ion</dimension>
   <field type="string">element</field>
   <field type="int">atomtype</field>
   <set>
    <rc><c>P </c><c>   1</c></rc>
    <rc><c>P </c><c>   1</c></rc>
    <rc><c>P </c><c>   1</c></rc>
    <rc><c>P </c><c>   1</c></rc>
    <rc><c>P </c><c>   1</c></rc>
    <rc><c>P </c><c>   1</c></rc>
    <rc><c>P </c><c>   1</c></rc>
    <rc><c>P </c><c>   1</c></rc>
    <rc><c>P </c><c>   1</c></rc>
    <rc><c>P </c><c>   1</c></rc>
    <rc><c>P </c><c>   1</c></rc>
    <rc><c>P </c><c>   1</c></rc>
   </set>
  </array>
  <array name="atomtypes" >
   <dimension dim="1">type</dimension>
   <field type="int">atomspertype</field>
   <field type="string">element</field>
   <field>mass</field>
   <field>valence</field>
   <field type="string">pseudopotential</field>
   <set>
    <rc><c>  12</c><c>P </c><c>     30.97400000</c><c>      5.00000000</c><c>  PAW_PBE P 06Sep2000                   </c></rc>
   </set>
  </array>
 </atominfo>
 <structure name="initialpos" >
  <crystal>
   <varray name="basis" >
    <v>       3.34288600       0.00000000       0.00000000 </v>
    <v>       0.00000000      32.60240900       0.00000000 </v>
    <v>       0.00000000       0.00000000       4.37483100 </v>
   </varray>
   <i name="volume">    476.79592902 </i>
   <varray name="rec_basis" >
    <v>       0.29914272       0.00000000       0.00000000 </v>
    <v>       0.00000000       0.03067258       0.00000000 </v>
    <v>       0.00000000       0.00000000       0.22858026 </v>
   </varray>
  </crystal>
  <varray name="positions" >
   <v>       0.00000000       0.30672600       0.91892400 </v>
   <v>       0.50000000       0.30672600       0.58107600 </v>
   <v>       0.00000000       0.37246700       0.08107600 </v>
   <v>       0.50000000       0.37246700       0.41892400 </v>
   <v>       0.50000000       0.46712900       0.91892400 </v>
   <v>       0.00000000       0.46712900       0.58107600 </v>
   <v>       0.50000000       0.53287100       0.08107600 </v>
   <v>       0.00000000       0.53287100       0.41892400 </v>
   <v>       0.00000000       0.62753300       0.91892400 </v>
   <v>       0.50000000       0.62753300       0.58107600 </v>
   <v>       0.00000000       0.69327400       0.08107600 </v>
   <v>       0.50000000       0.69327400       0.41892400 </v>
  </varray>
 </structure>
 <calculation>
  <scstep>
   <time name="dav">    0.72    0.72</time>
   <time name="total">    0.83    0.83</time>
   <energy>
    <i name="alphaZ">     30.28014394 </i>
    <i name="ewald">  14973.24208224 </i>
    <i name="hartreedc"> -16928.93300519 </i>
    <i name="XCdc">     40.33409997 </i>
    <i name="pawpsdc">   1677.12035881 </i>
    <i name="pawaedc">  -1579.18296132 </i>
    <i name="eentropy">     -0.00000000 </i>
    <i name="bandstr">     77.31565884 </i>
    <i name="atom">   2112.50885871 </i>
    <i name="e_fr_energy">    402.68523599 </i>
    <i name="e_wo_entrp">    402.68523599 </i>
    <i name="e_0_energy">    402.68523599 </i>
   </energy>
  </scstep>
  <scstep>
   <time name="dav">    0.88    0.88</time>
   <time name="total">    0.88    0.88</time>
   <energy>
    <i name="e_fr_energy">    -17.42280896 </i>
    <i name="e_wo_entrp">    -17.42280896 </i>
    <i name="e_0_energy">    -17.42280896 </i>
   </energy>
  </scstep>
  <scstep>
   <time name="dav">    0.80    0.81</time>
   <time name="total">    0.80    0.81</time>
   <energy>
    <i name="e_fr_energy">    -62.98258108 </i>
    <i name="e_wo_entrp">    -62.98258108 </i>
    <i name="e_0_energy">    -62.98258108 </i>
   </energy>
  </scstep>
  <scstep>
   <time name="dav">    0.94    0.94</time>
   <time name="total">    0.94    0.94</time>
   <energy>
    <i name="e_fr_energy">    -64.77497540 </i>
    <i name="e_wo_entrp">    -64.77497540 </i>
    <i name="e_0_energy">    -64.77497540 </i>
   </energy>
  </scstep>
  <scstep>
   <time name="dav">    0.94    0.94</time>
   <time name="total">    0.98    0.99</time>
   <energy>
    <i name="e_fr_energy">    -64.81434128 </i>
    <i name="e_wo_entrp">    -64.81434128 </i>
    <i name="e_0_energy">    -64.81434128 </i>
   </energy>
  </scstep>
  <scstep>
   <time name="dav">    0.85    0.85</time>
   <time name="total">    0.99    0.99</time>
   <energy>
    <i name="e_fr_energy">    -64.48966544 </i>
    <i name="e_wo_entrp">    -64.48966544 </i>
    <i name="e_0_energy">    -64.48966544 </i>
   </energy>
  </scstep>
  <scstep>
   <time name="dav">    0.81    0.81</time>
   <time name="total">    0.95    0.95</time>
   <energy>
    <i name="e_fr_energy">    -64.34028920 </i>
    <i name="e_wo_entrp">    -64.34028897 </i>
    <i name="e_0_energy">    -64.34028909 </i>
   </energy>
  </scstep>
  <scstep>
   <time name="dav">    0.83    0.84</time>
   <time name="total">    0.97    0.98</time>
   <energy>
    <i name="e_fr_energy">    -64.34006578 </i>
    <i name="e_wo_entrp">    -64.34006571 </i>
    <i name="e_0_energy">    -64.34006574 </i>
   </energy>
  </scstep>
  <scstep>
   <time name="dav">    0.94    0.94</time>
   <time name="total">    1.07    1.08</time>
   <energy>
    <i name="e_fr_energy">    -64.34003522 </i>
    <i name="e_wo_entrp">    -64.34003516 </i>
    <i name="e_0_energy">    -64.34003519 </i>
   </energy>
  </scstep>
  <scstep>
   <time name="dav">    0.80    0.80</time>
   <time name="total">    0.93    0.94</time>
   <energy>
    <i name="e_fr_energy">    -64.33978378 </i>
    <i name="e_wo_entrp">    -64.33978375 </i>
    <i name="e_0_energy">    -64.33978376 </i>
   </energy>
  </scstep>
  <scstep>
   <time name="dav">    0.91    0.91</time>
   <time name="total">    1.05    1.06</time>
   <energy>
    <i name="e_fr_energy">    -64.33953754 </i>
    <i name="e_wo_entrp">    -64.33953749 </i>
    <i name="e_0_energy">    -64.33953751 </i>
   </energy>
  </scstep>
  <scstep>
   <time name="dav">    0.80    0.80</time>
   <time name="total">    0.94    0.94</time>
   <energy>
    <i name="e_fr_energy">    -64.33962492 </i>
    <i name="e_wo_entrp">    -64.33962487 </i>
    <i name="e_0_energy">    -64.33962490 </i>
   </energy>
  </scstep>
  <scstep>
   <time name="dav">    0.78    0.78</time>
   <time name="total">    0.91    0.92</time>
   <energy>
    <i name="e_fr_energy">    -64.33985321 </i>
    <i name="e_wo_entrp">    -64.33985315 </i>
    <i name="e_0_energy">    -64.33985318 </i>
   </energy>
  </scstep>
  <scstep>
   <time name="dav">    0.73    0.73</time>
   <time name="total">    0.87    0.87</time>
   <energy>
    <i name="e_fr_energy">    -64.34001279 </i>
    <i name="e_wo_entrp">    -64.34001272 </i>
    <i name="e_0_energy">    -64.34001276 </i>
   </energy>
  </scstep>
  <scstep>
   <time name="dav">    0.60    0.60</time>
   <time name="total">    0.73    0.74</time>
   <energy>
    <i name="e_fr_energy">    -64.34003152 </i>
    <i name="e_wo_entrp">    -64.34003145 </i>
    <i name="e_0_energy">    -64.34003149 </i>
   </energy>
  </scstep>
  <scstep>
   <time name="dav">    1.04    1.06</time>
   <time name="total">    1.18    1.20</time>
   <energy>
    <i name="e_fr_energy">    -64.34024026 </i>
    <i name="e_wo_entrp">    -64.34024019 </i>
    <i name="e_0_energy">    -64.34024022 </i>
   </energy>
  </scstep>
  <scstep>
   <time name="dav">    0.63    0.64</time>
   <time name="total">    0.77    0.77</time>
   <energy>
    <i name="e_fr_energy">    -64.34027402 </i>
    <i name="e_wo_entrp">    -64.34027395 </i>
    <i name="e_0_energy">    -64.34027398 </i>
   </energy>
  </scstep>
  <scstep>
   <time name="dav">    0.60    0.60</time>
   <time name="total">    0.77    0.77</time>
   <energy>
    <i name="alphaZ">     30.28014394 </i>
    <i name="ewald">  14973.24208224 </i>
    <i name="hartreedc"> -16968.16876812 </i>
    <i name="XCdc">     43.14214337 </i>
    <i name="pawpsdc">   6278.52996569 </i>
    <i name="pawaedc">  -6181.51074485 </i>
    <i name="eentropy">     -0.00000007 </i>
    <i name="bandstr">   -352.36395585 </i>
    <i name="atom">   2112.50885871 </i>
    <i name="e_fr_energy">    -64.34027494 </i>
    <i name="e_wo_entrp">    -64.34027487 </i>
    <i name="e_0_energy">    -64.34027490 </i>
   </energy>
  </scstep>
  <structure>
   <crystal>
    <varray name="basis" >
     <v>       3.34288600       0.00000000       0.00000000 </v>
     <v>       0.00000000      32.60240900       0.00000000 </v>
     <v>       0.00000000       0.00000000       4.37483100 </v>
    </varray>
    <i name="volume">    476.79592902 </i>
    <varray name="rec_basis" >
     <v>       0.29914272       0.00000000       0.00000000 </v>
     <v>       0.00000000       0.03067258       0.00000000 </v>
     <v>       0.00000000       0.00000000       0.22858026 </v>
    </varray>
   </crystal>
   <varray name="positions" >
    <v>       0.00000000       0.30672600       0.91892400 </v>
    <v>       0.50000000       0.30672600       0.58107600 </v>
    <v>       0.00000000       0.37246700       0.08107600 </v>
    <v>       0.50000000       0.37246700       0.41892400 </v>
    <v>       0.50000000       0.46712900       0.91892400 </v>
    <v>       0.00000000       0.46712900       0.58107600 </v>
    <v>       0.50000000       0.53287100       0.08107600 </v>
    <v>       0.00000000       0.53287100       0.41892400 </v>
    <v>       0.00000000       0.62753300       0.91892400 </v>
    <v>       0.50000000       0.62753300       0.58107600 </v>
    <v>       0.00000000       0.69327400       0.08107600 </v>
    <v>       0.50000000       0.69327400       0.41892400 </v>
   </varray>
  </structure>
  <varray name="forces" >
   <v>       0.00000000       0.08175163      -0.03845159 </v>
   <v>      -0.00000000       0.08175163       0.03845159 </v>
   <v>       0.00000000      -0.07748627      -0.02146284 </v>
   <v>       0.00000000      -0.07748627       0.02146284 </v>
   <v>       0.00000000       0.03775679       0.00258371 </v>
   <v>       0.00000000       0.03775679      -0.00258371 </v>
   <v>       0.00000000      -0.03775679      -0.00258371 </v>
   <v>       0.00000000      -0.03775679       0.00258371 </v>
   <v>       0.00000000       0.07748627       0.02146284 </v>
   <v>      -0.00000000       0.07748627      -0.02146284 </v>
   <v>       0.00000000      -0.08175163       0.03845159 </v>
   <v>       0.00000000      -0.08175163      -0.03845159 </v>
  </varray>
  <varray name="stress" >
   <v>       0.95850013       0.00000000       0.00000000 </v>
   <v>       0.00000000      -3.20207266      -0.00000000 </v>
   <v>       0.00000000       0.00000000       4.15958246 </v>
  </varray>
  <energy>
   <i name="e_fr_energy">    -66.51421446 </i>
   <i name="e_wo_entrp">    -66.51421443 </i>
   <i name="e_0_energy">     -0.00000007 </i>
  </energy>
  <time name="totalsc">   19.06   19.14</time>
  <eigenvalues>
   <array>
    <dimension dim="1">band</dimension>
    <dimension dim="2">kpoint</dimension>
    <dimension dim="3">spin</dimension>
    <field>eigene</field>
    <field>occ</field>
    <set>
     <set comment="spin 1">
      <set comment="kpoint 1">
       <r>  -14.8547    1.0000 </r>
       <r>  -14.7346    1.0000 </r>
       <r>  -14.6658    1.0000 </r>
       <r>  -12.3737    1.0000 </r>
       <r>  -12.1280    1.0000 </r>
       <r>  -11.9482    1.0000 </r>
       <r>   -8.6066    1.0000 </r>
       <r>   -8.5226    1.0000 </r>
       <r>   -8.4923    1.0000 </r>
       <r>   -5.9246    1.0000 </r>
       <r>   -5.5459    1.0000 </r>
       <r>   -5.1276    1.0000 </r>
       <r>   -4.5055    1.0000 </r>
       <r>   -4.5054    1.0000 </r>
       <r>   -4.1879    1.0000 </r>
       <r>   -4.1436    1.0000 </r>
       <r>   -3.9962    1.0000 </r>
       <r>   -3.9220    1.0000 </r>
       <r>   -3.3942    1.0000 </r>
       <r>   -3.2935    1.0000 </r>
       <r>   -3.2436    1.0000 </r>
       <r>   -1.8803    1.0000 </r>
       <r>   -1.7370    1.0000 </r>
       <r>   -1.6252    1.0000 </r>
       <r>   -1.5900    1.0000 </r>
       <r>   -1.5049    1.0000 </r>
       <r>   -1.1085    1.0000 </r>
       <r>   -0.2501    1.0000 </r>
       <r>    0.3536    1.0000 </r>
       <r>    0.9091    1.0000 </r>
       <r>    0.9686    0.0000 </r>
       <r>    1.4963    0.0000 </r>
       <r>    1.5222    0.0000 </r>
       <r>    1.6968    0.0000 </r>
       <r>    1.7044    0.0000 </r>
       <r>    1.8603    0.0000 </r>
       <r>    2.7295    0.0000 </r>
       <r>    2.9000    0.0000 </r>
       <r>    2.9709    0.0000 </r>
       <r>    3.6815    0.0000 </r>
      </set>
      <set comment="kpoint 2">
       <r>  -14.5313    1.0000 </r>
       <r>  -14.4122    1.0000 </r>
       <r>  -14.3448    1.0000 </r>
       <r>  -12.0371    1.0000 </r>
       <r>  -11.7927    1.0000 </r>
       <r>  -11.6139    1.0000 </r>
       <r>   -8.8993    1.0000 </r>
       <r>   -8.8383    1.0000 </r>
       <r>   -8.8323    1.0000 </r>
       <r>   -5.6516    1.0000 </r>
       <r>   -5.2805    1.0000 </r>
       <r>   -4.9727    1.0000 </r>
       <r>   -4.8918    1.0000 </r>
       <r>   -4.8853    1.0000 </r>
       <r>   -4.8538    1.0000 </r>
       <r>   -4.4289    1.0000 </r>
       <r>   -4.3556    1.0000 </r>
       <r>   -4.3449    1.0000 </r>
       <r>   -4.2194    1.0000 </r>
       <r>   -3.8749    1.0000 </r>
       <r>   -3.7307    1.0000 </r>
       <r>   -2.6620    1.0000 </r>
       <r>   -2.5117    1.0000 </r>
       <r>   -2.3464    1.0000 </r>
       <r>   -1.7423    1.0000 </r>
       <r>   -1.4710    1.0000 </r>
       <r>   -0.9685    1.0000 </r>
       <r>   -0.2142    1.0000 </r>
       <r>    0.1862    1.0000 </r>
       <r>    0.4565    1.0000 </r>
       <r>    1.2519    0.0000 </r>
       <r>    1.6566    0.0000 </r>
       <r>    1.8809    0.0000 </r>
       <r>    2.3384    0.0000 </r>
       <r>    2.5504    0.0000 </r>
       <r>    2.5748    0.0000 </r>
       <r>    3.7493    0.0000 </r>
       <r>    3.8749    0.0000 </r>
       <r>    3.9794    0.0000 </r>
       <r>    4.2546    0.0000 </r>
      </set>
      <set comment="kpoint 3">
       <r>  -13.5781    1.0000 </r>
       <r>  -13.4633    1.0000 </r>
       <r>  -13.4002    1.0000 </r>
       <r>  -11.0355    1.0000 </r>
       <r>  -10.7958    1.0000 </r>
       <r>  -10.6208    1.0000 </r>
       <r>  -10.2418    1.0000 </r>
       <r>  -10.1627    1.0000 </r>
       <r>  -10.1377    1.0000 </r>
       <r>   -7.2215    1.0000 </r>
       <r>   -7.0254    1.0000 </r>
       <r>   -6.8872    1.0000 </r>
       <r>   -4.9310    1.0000 </r>
       <r>   -4.9060    1.0000 </r>
       <r>   -4.8499    1.0000 </r>
       <r>   -4.8407    1.0000 </r>
       <r>   -4.6056    1.0000 </r>
       <r>   -4.3162    1.0000 </r>
       <r>   -3.4265    1.0000 </r>
       <r>   -3.1572    1.0000 </r>
       <r>   -3.0342    1.0000 </r>
       <r>   -2.6860    1.0000 </r>
       <r>   -2.3965    1.0000 </r>
       <r>   -2.1622    1.0000 </r>
       <r>   -1.7912    1.0000 </r>
       <r>   -1.5221    1.0000 </r>
       <r>   -1.1905    1.0000 </r>
       <r>   -0.8936    1.0000 </r>
       <r>   -0.7538    1.0000 </r>
       <r>   -0.6903    1.0000 </r>
       <r>    1.1107    0.0000 </r>
       <r>    1.1720    0.0000 </r>
       <r>    1.4337    0.0000 </r>
       <r>    2.0729    0.0000 </r>
       <r>    2.2846    0.0000 </r>
       <r>    2.6021    0.0000 </r>
       <r>    2.6454    0.0000 </r>
       <r>    2.6614    0.0000 </r>
       <r>    2.6687    0.0000 </r>
       <r>    2.9498    0.0000 </r>
      </set>
      <set comment="kpoint 4">
       <r>  -12.0676    1.0000 </r>
       <r>  -12.0676    1.0000 </r>
       <r>  -11.9627    1.0000 </r>
       <r>  -11.9627    1.0000 </r>
       <r>  -11.9103    1.0000 </r>
       <r>  -11.9103    1.0000 </r>
       <r>   -9.4001    1.0000 </r>
       <r>   -9.4001    1.0000 </r>
       <r>   -9.1715    1.0000 </r>
       <r>   -9.1715    1.0000 </r>
       <r>   -9.0053    1.0000 </r>
       <r>   -9.0053    1.0000 </r>
       <r>   -4.4699    1.0000 </r>
       <r>   -4.4699    1.0000 </r>
       <r>   -4.3357    1.0000 </r>
       <r>   -4.3357    1.0000 </r>
       <r>   -4.2900    1.0000 </r>
       <r>   -4.2900    1.0000 </r>
       <r>   -2.4677    1.0000 </r>
       <r>   -2.4677    1.0000 </r>
       <r>   -2.3941    1.0000 </r>
       <r>   -2.3941    1.0000 </r>
       <r>   -2.3937    1.0000 </r>
       <r>   -2.3937    1.0000 </r>
       <r>   -2.0110    1.0000 </r>
       <r>   -2.0110    1.0000 </r>
       <r>   -1.7403    1.0000 </r>
       <r>   -1.7403    1.0000 </r>
       <r>   -1.4882    1.0000 </r>
       <r>   -1.4882    1.0000 </r>
       <r>    1.6187    0.0000 </r>
       <r>    1.6187    0.0000 </r>
       <r>    1.6313    0.0000 </r>
       <r>    1.6313    0.0000 </r>
       <r>    1.7131    0.0000 </r>
       <r>    1.7131    0.0000 </r>
       <r>    2.1548    0.0000 </r>
       <r>    2.1560    0.0000 </r>
       <r>    2.1911    0.0000 </r>
       <r>    2.1929    0.0000 </r>
      </set>
      <set comment="kpoint 5">
       <r>  -14.5033    1.0000 </r>
       <r>  -14.3904    1.0000 </r>
       <r>  -14.3294    1.0000 </r>
       <r>  -12.5962    1.0000 </r>
       <r>  -12.4624    1.0000 </r>
       <r>  -12.4017    1.0000 </r>
       <r>   -9.0059    1.0000 </r>
       <r>   -8.8492    1.0000 </r>
       <r>   -8.7267    1.0000 </r>
       <r>   -6.9122    1.0000 </r>
       <r>   -6.6394    1.0000 </r>
       <r>   -6.4715    1.0000 </r>
       <r>   -4.5491    1.0000 </r>
       <r>   -4.0382    1.0000 </r>
       <r>   -3.3762    1.0000 </r>
       <r>   -3.1170    1.0000 </r>
       <r>   -3.0638    1.0000 </r>
       <r>   -3.0247    1.0000 </r>
       <r>   -2.9838    1.0000 </r>
       <r>   -2.7188    1.0000 </r>
       <r>   -2.7181    1.0000 </r>
       <r>   -1.8654    1.0000 </r>
       <r>   -1.7649    1.0000 </r>
       <r>   -1.7339    1.0000 </r>
       <r>   -1.7263    1.0000 </r>
       <r>   -1.0752    1.0000 </r>
       <r>   -0.4264    1.0000 </r>
       <r>   -0.2676    1.0000 </r>
       <r>   -0.2051    1.0000 </r>
       <r>   -0.0276    1.0000 </r>
       <r>    1.6790    0.0000 </r>
       <r>    2.0055    0.0000 </r>
       <r>    2.1136    0.0000 </r>
       <r>    2.2068    0.0000 </r>
       <r>    2.2567    0.0000 </r>
       <r>    2.2599    0.0000 </r>
       <r>    2.3677    0.0000 </r>
       <r>    2.7081    0.0000 </r>
       <r>    3.2521    0.0000 </r>
       <r>    3.3365    0.0000 </r>
      </set>
      <set comment="kpoint 6">
       <r>  -14.1845    1.0000 </r>
       <r>  -14.0728    1.0000 </r>
       <r>  -14.0130    1.0000 </r>
       <r>  -12.2802    1.0000 </r>
       <r>  -12.1509    1.0000 </r>
       <r>  -12.0943    1.0000 </r>
       <r>   -9.0397    1.0000 </r>
       <r>   -8.8875    1.0000 </r>
       <r>   -8.7742    1.0000 </r>
       <r>   -6.7963    1.0000 </r>
       <r>   -6.5667    1.0000 </r>
       <r>   -6.4200    1.0000 </r>
       <r>   -4.9862    1.0000 </r>
       <r>   -4.8456    1.0000 </r>
       <r>   -4.7167    1.0000 </r>
       <r>   -4.5119    1.0000 </r>
       <r>   -4.0380    1.0000 </r>
       <r>   -3.7239    1.0000 </r>
       <r>   -3.3134    1.0000 </r>
       <r>   -3.1980    1.0000 </r>
       <r>   -2.9145    1.0000 </r>
       <r>   -2.3361    1.0000 </r>
       <r>   -2.1653    1.0000 </r>
       <r>   -2.1439    1.0000 </r>
       <r>   -1.4993    1.0000 </r>
       <r>   -0.9519    1.0000 </r>
       <r>   -0.8612    1.0000 </r>
       <r>   -0.7312    1.0000 </r>
       <r>   -0.4608    1.0000 </r>
       <r>   -0.4125    1.0000 </r>
       <r>    2.0274    0.0000 </r>
       <r>    2.3123    0.0000 </r>
       <r>    2.5876    0.0000 </r>
       <r>    2.8628    0.0000 </r>
       <r>    3.0133    0.0000 </r>
       <r>    3.0652    0.0000 </r>
       <r>    3.3731    0.0000 </r>
       <r>    3.4976    0.0000 </r>
       <r>    3.6076    0.0000 </r>
       <r>    4.3297    0.0000 </r>
      </set>
      <set comment="kpoint 7">
       <r>  -13.2534    1.0000 </r>
       <r>  -13.1463    1.0000 </r>
       <r>  -13.0915    1.0000 </r>
       <r>  -11.4368    1.0000 </r>
       <r>  -11.3346    1.0000 </r>
       <r>  -11.3016    1.0000 </r>
       <r>   -9.7502    1.0000 </r>
       <r>   -9.5902    1.0000 </r>
       <r>   -9.4806    1.0000 </r>
       <r>   -7.5241    1.0000 </r>
       <r>   -7.4371    1.0000 </r>
       <r>   -7.4165    1.0000 </r>
       <r>   -5.8331    1.0000 </r>
       <r>   -5.6653    1.0000 </r>
       <r>   -5.5321    1.0000 </r>
       <r>   -4.7975    1.0000 </r>
       <r>   -4.7534    1.0000 </r>
       <r>   -4.6783    1.0000 </r>
       <r>   -3.3918    1.0000 </r>
       <r>   -3.3112    1.0000 </r>
       <r>   -3.1777    1.0000 </r>
       <r>   -2.5127    1.0000 </r>
       <r>   -2.3686    1.0000 </r>
       <r>   -2.3640    1.0000 </r>
       <r>   -2.2361    1.0000 </r>
       <r>   -1.8480    1.0000 </r>
       <r>   -1.3305    1.0000 </r>
       <r>   -0.9602    1.0000 </r>
       <r>   -0.6602    1.0000 </r>
       <r>   -0.6242    1.0000 </r>
       <r>    1.7033    0.0000 </r>
       <r>    1.8315    0.0000 </r>
       <r>    2.0263    0.0000 </r>
       <r>    2.5145    0.0000 </r>
       <r>    2.7049    0.0000 </r>
       <r>    2.9610    0.0000 </r>
       <r>    3.1521    0.0000 </r>
       <r>    3.3300    0.0000 </r>
       <r>    3.3718    0.0000 </r>
       <r>    3.8739    0.0000 </r>
      </set>
      <set comment="kpoint 8">
       <r>  -11.8545    1.0000 </r>
       <r>  -11.8545    1.0000 </r>
       <r>  -11.7627    1.0000 </r>
       <r>  -11.7627    1.0000 </r>
       <r>  -11.7245    1.0000 </r>
       <r>  -11.7245    1.0000 </r>
       <r>   -9.4310    1.0000 </r>
       <r>   -9.4310    1.0000 </r>
       <r>   -9.2733    1.0000 </r>
       <r>   -9.2733    1.0000 </r>
       <r>   -9.1819    1.0000 </r>
       <r>   -9.1819    1.0000 </r>
       <r>   -5.0178    1.0000 </r>
       <r>   -5.0178    1.0000 </r>
       <r>   -4.8282    1.0000 </r>
       <r>   -4.8282    1.0000 </r>
       <r>   -4.6765    1.0000 </r>
       <r>   -4.6765    1.0000 </r>
       <r>   -3.6867    1.0000 </r>
       <r>   -3.6867    1.0000 </r>
       <r>   -3.4423    1.0000 </r>
       <r>   -3.4423    1.0000 </r>
       <r>   -3.3092    1.0000 </r>
       <r>   -3.3092    1.0000 </r>
       <r>   -1.5496    1.0000 </r>
       <r>   -1.5496    1.0000 </r>
       <r>   -1.2060    1.0000 </r>
       <r>   -1.2060    1.0000 </r>
       <r>   -0.9102    1.0000 </r>
       <r>   -0.9102    1.0000 </r>
       <r>    2.0050    0.0000 </r>
       <r>    2.0050    0.0000 </r>
       <r>    2.3079    0.0000 </r>
       <r>    2.3079    0.0000 </r>
       <r>    2.4547    0.0000 </r>
       <r>    2.4547    0.0000 </r>
       <r>    3.1796    0.0000 </r>
       <r>    3.1796    0.0000 </r>
       <r>    3.4035    0.0000 </r>
       <r>    3.4035    0.0000 </r>
      </set>
      <set comment="kpoint 9">
       <r>  -13.5469    1.0000 </r>
       <r>  -13.5469    1.0000 </r>
       <r>  -13.4773    1.0000 </r>
       <r>  -13.4773    1.0000 </r>
       <r>  -13.4309    1.0000 </r>
       <r>  -13.4309    1.0000 </r>
       <r>   -8.5713    1.0000 </r>
       <r>   -8.5713    1.0000 </r>
       <r>   -8.2548    1.0000 </r>
       <r>   -8.2548    1.0000 </r>
       <r>   -7.9812    1.0000 </r>
       <r>   -7.9812    1.0000 </r>
       <r>   -3.5915    1.0000 </r>
       <r>   -3.5915    1.0000 </r>
       <r>   -2.8287    1.0000 </r>
       <r>   -2.8287    1.0000 </r>
       <r>   -2.4230    1.0000 </r>
       <r>   -2.4230    1.0000 </r>
       <r>   -2.3793    1.0000 </r>
       <r>   -2.3793    1.0000 </r>
       <r>   -2.3340    1.0000 </r>
       <r>   -2.3340    1.0000 </r>
       <r>   -2.0236    1.0000 </r>
       <r>   -2.0236    1.0000 </r>
       <r>   -0.7280    1.0000 </r>
       <r>   -0.7280    1.0000 </r>
       <r>   -0.5203    1.0000 </r>
       <r>   -0.5203    1.0000 </r>
       <r>   -0.4478    1.0000 </r>
       <r>   -0.4478    1.0000 </r>
       <r>    2.1897    0.0000 </r>
       <r>    2.1897    0.0000 </r>
       <r>    2.2331    0.0000 </r>
       <r>    2.2331    0.0000 </r>
       <r>    2.2856    0.0000 </r>
       <r>    2.2856    0.0000 </r>
       <r>    3.4173    0.0000 </r>
       <r>    3.4175    0.0000 </r>
       <r>    3.5684    0.0000 </r>
       <r>    3.5957    0.0000 </r>
      </set>
      <set comment="kpoint 10">
       <r>  -13.2409    1.0000 </r>
       <r>  -13.2409    1.0000 </r>
       <r>  -13.1714    1.0000 </r>
       <r>  -13.1714    1.0000 </r>
       <r>  -13.1260    1.0000 </r>
       <r>  -13.1260    1.0000 </r>
       <r>   -8.4265    1.0000 </r>
       <r>   -8.4265    1.0000 </r>
       <r>   -8.1363    1.0000 </r>
       <r>   -8.1363    1.0000 </r>
       <r>   -7.8957    1.0000 </r>
       <r>   -7.8957    1.0000 </r>
       <r>   -4.3702    1.0000 </r>
       <r>   -4.3702    1.0000 </r>
       <r>   -4.2642    1.0000 </r>
       <r>   -4.2642    1.0000 </r>
       <r>   -4.1660    1.0000 </r>
       <r>   -4.1660    1.0000 </r>
       <r>   -3.3514    1.0000 </r>
       <r>   -3.3514    1.0000 </r>
       <r>   -2.6381    1.0000 </r>
       <r>   -2.6381    1.0000 </r>
       <r>   -1.9683    1.0000 </r>
       <r>   -1.9683    1.0000 </r>
       <r>   -0.8122    1.0000 </r>
       <r>   -0.8122    1.0000 </r>
       <r>   -0.6453    1.0000 </r>
       <r>   -0.6453    1.0000 </r>
       <r>   -0.4919    1.0000 </r>
       <r>   -0.4919    1.0000 </r>
       <r>    2.8448    0.0000 </r>
       <r>    2.8448    0.0000 </r>
       <r>    2.9829    0.0000 </r>
       <r>    2.9829    0.0000 </r>
       <r>    3.0962    0.0000 </r>
       <r>    3.0962    0.0000 </r>
       <r>    3.5133    0.0000 </r>
       <r>    3.5133    0.0000 </r>
       <r>    3.9741    0.0000 </r>
       <r>    3.9741    0.0000 </r>
      </set>
      <set comment="kpoint 11">
       <r>  -12.3830    1.0000 </r>
       <r>  -12.3830    1.0000 </r>
       <r>  -12.3156    1.0000 </r>
       <r>  -12.3156    1.0000 </r>
       <r>  -12.2755    1.0000 </r>
       <r>  -12.2755    1.0000 </r>
       <r>   -8.6636    1.0000 </r>
       <r>   -8.6636    1.0000 </r>
       <r>   -8.5141    1.0000 </r>
       <r>   -8.5141    1.0000 </r>
       <r>   -8.4283    1.0000 </r>
       <r>   -8.4283    1.0000 </r>
       <r>   -5.7961    1.0000 </r>
       <r>   -5.7961    1.0000 </r>
       <r>   -5.5449    1.0000 </r>
       <r>   -5.5449    1.0000 </r>
       <r>   -5.3202    1.0000 </r>
       <r>   -5.3202    1.0000 </r>
       <r>   -3.4355    1.0000 </r>
       <r>   -3.4355    1.0000 </r>
       <r>   -3.0691    1.0000 </r>
       <r>   -3.0691    1.0000 </r>
       <r>   -2.7859    1.0000 </r>
       <r>   -2.7859    1.0000 </r>
       <r>   -1.8733    1.0000 </r>
       <r>   -1.8733    1.0000 </r>
       <r>   -1.3278    1.0000 </r>
       <r>   -1.3278    1.0000 </r>
       <r>   -0.8288    1.0000 </r>
       <r>   -0.8288    1.0000 </r>
       <r>    2.6918    0.0000 </r>
       <r>    2.6918    0.0000 </r>
       <r>    3.2784    0.0000 </r>
       <r>    3.2784    0.0000 </r>
       <r>    3.9562    0.0000 </r>
       <r>    3.9589    0.0000 </r>
       <r>    3.9830    0.0000 </r>
       <r>    3.9857    0.0000 </r>
       <r>    4.0854    0.0000 </r>
       <r>    4.1075    0.0000 </r>
      </set>
      <set comment="kpoint 12">
       <r>  -11.5664    1.0000 </r>
       <r>  -11.5664    1.0000 </r>
       <r>  -11.5107    1.0000 </r>
       <r>  -11.5107    1.0000 </r>
       <r>  -11.5106    1.0000 </r>
       <r>  -11.5106    1.0000 </r>
       <r>   -9.5297    1.0000 </r>
       <r>   -9.5297    1.0000 </r>
       <r>   -9.4665    1.0000 </r>
       <r>   -9.4665    1.0000 </r>
       <r>   -9.4652    1.0000 </r>
       <r>   -9.4652    1.0000 </r>
       <r>   -4.9612    1.0000 </r>
       <r>   -4.9612    1.0000 </r>
       <r>   -4.9464    1.0000 </r>
       <r>   -4.9464    1.0000 </r>
       <r>   -4.6715    1.0000 </r>
       <r>   -4.6715    1.0000 </r>
       <r>   -4.6179    1.0000 </r>
       <r>   -4.6179    1.0000 </r>
       <r>   -4.3757    1.0000 </r>
       <r>   -4.3757    1.0000 </r>
       <r>   -4.3750    1.0000 </r>
       <r>   -4.3750    1.0000 </r>
       <r>   -1.2347    1.0000 </r>
       <r>   -1.2347    1.0000 </r>
       <r>   -1.1807    1.0000 </r>
       <r>   -1.1807    1.0000 </r>
       <r>   -1.0523    1.0000 </r>
       <r>   -1.0523    1.0000 </r>
       <r>    2.6254    0.0000 </r>
       <r>    2.6254    0.0000 </r>
       <r>    2.7585    0.0000 </r>
       <r>    2.7585    0.0000 </r>
       <r>    2.8970    0.0000 </r>
       <r>    2.8970    0.0000 </r>
       <r>    4.8128    0.0000 </r>
       <r>    4.8342    0.0000 </r>
       <r>    4.8645    0.0000 </r>
       <r>    4.8653    0.0000 </r>
      </set>
     </set>
    </set>
   </array>
  </eigenvalues>
  <separator name="orbital magnetization" >
   <v name="MAGDIPOLOUT">      0.00000000      0.00000000      0.00000000</v>
  </separator>
  <dos>
   <i name="efermi">      0.93886791 </i>
   <total>
    <array>
     <dimension dim="1">gridpoints</dimension>
     <dimension dim="2">spin</dimension>
     <field>energy</field>
     <field>total</field>
     <field>integrated</field>
     <set>
      <set comment="spin 1">
       <r>   -15.8407     0.0000     0.0000 </r>
       <r>   -15.8299     0.0000     0.0000 </r>
       <r>   -15.8190     0.0000     0.0000 </r>
       <r>   -15.8082     0.0000     0.0000 </r>
       <r>   -15.7973     0.0000     0.0000 </r>
       <r>   -15.7865     0.0000     0.0000 </r>
       <r>   -15.7756     0.0000     0.0000 </r>
       <r>   -15.7648     0.0000     0.0000 </r>
       <r>   -15.7539     0.0000     0.0000 </r>
       <r>   -15.7431     0.0000     0.0000 </r>
       <r>   -15.7322     0.0000     0.0000 </r>
       <r>   -15.7214     0.0000     0.0000 </r>
       <r>   -15.7105     0.0000     0.0000 </r>
       <r>   -15.6997     0.0000     0.0000 </r>
       <r>   -15.6888     0.0000     0.0000 </r>
       <r>   -15.6780     0.0000     0.0000 </r>
       <r>   -15.6671     0.0000     0.0000 </r>
       <r>   -15.6563     0.0000     0.0000 </r>
       <r>   -15.6454     0.0000     0.0000 </r>
       <r>   -15.6346     0.0000     0.0000 </r>
       <r>   -15.6237     0.0000     0.0000 </r>
       <r>   -15.6129     0.0000     0.0000 </r>
       <r>   -15.6020     0.0000     0.0000 </r>
       <r>   -15.5912     0.0000     0.0000 </r>
       <r>   -15.5803     0.0000     0.0000 </r>
       <r>   -15.5695     0.0000     0.0000 </r>
       <r>   -15.5586     0.0000     0.0000 </r>
       <r>   -15.5478     0.0000     0.0000 </r>
       <r>   -15.5369     0.0000     0.0000 </r>
       <r>   -15.5261     0.0000     0.0000 </r>
       <r>   -15.5152     0.0000     0.0000 </r>
       <r>   -15.5043     0.0000     0.0000 </r>
       <r>   -15.4935     0.0000     0.0000 </r>
       <r>   -15.4826     0.0000     0.0000 </r>
       <r>   -15.4718     0.0000     0.0000 </r>
       <r>   -15.4609     0.0000     0.0000 </r>
       <r>   -15.4501     0.0000     0.0000 </r>
       <r>   -15.4392     0.0000     0.0000 </r>
       <r>   -15.4284     0.0000     0.0000 </r>
       <r>   -15.4175     0.0000     0.0000 </r>
       <r>   -15.4067     0.0000     0.0000 </r>
       <r>   -15.3958     0.0000     0.0000 </r>
       <r>   -15.3850     0.0000     0.0000 </r>
       <r>   -15.3741     0.0000     0.0000 </r>
       <r>   -15.3633     0.0000     0.0000 </r>
       <r>   -15.3524     0.0000     0.0000 </r>
       <r>   -15.3416     0.0000     0.0000 </r>
       <r>   -15.3307     0.0000     0.0000 </r>
       <r>   -15.3199     0.0000     0.0000 </r>
       <r>   -15.3090     0.0000     0.0000 </r>
       <r>   -15.2982     0.0000     0.0000 </r>
       <r>   -15.2873     0.0000     0.0000 </r>
       <r>   -15.2765     0.0000     0.0000 </r>
       <r>   -15.2656     0.0000     0.0000 </r>
       <r>   -15.2548     0.0000     0.0000 </r>
       <r>   -15.2439     0.0000     0.0000 </r>
       <r>   -15.2331     0.0000     0.0000 </r>
       <r>   -15.2222     0.0000     0.0000 </r>
       <r>   -15.2114     0.0000     0.0000 </r>
       <r>   -15.2005     0.0000     0.0000 </r>
       <r>   -15.1897     0.0000     0.0000 </r>
       <r>   -15.1788     0.0000     0.0000 </r>
       <r>   -15.1680     0.0000     0.0000 </r>
       <r>   -15.1571     0.0000     0.0000 </r>
       <r>   -15.1462     0.0000     0.0000 </r>
       <r>   -15.1354     0.0000     0.0000 </r>
       <r>   -15.1245     0.0000     0.0000 </r>
       <r>   -15.1137     0.0000     0.0000 </r>
       <r>   -15.1028     0.0000     0.0000 </r>
       <r>   -15.0920     0.0000     0.0000 </r>
       <r>   -15.0811     0.0000     0.0000 </r>
       <r>   -15.0703     0.0000     0.0000 </r>
       <r>   -15.0594     0.0000     0.0000 </r>
       <r>   -15.0486     0.0000     0.0000 </r>
       <r>   -15.0377     0.0000     0.0000 </r>
       <r>   -15.0269     0.0000     0.0000 </r>
       <r>   -15.0160     0.0000     0.0000 </r>
       <r>   -15.0052     0.0000     0.0000 </r>
       <r>   -14.9943     0.0000     0.0000 </r>
       <r>   -14.9835     0.0000     0.0000 </r>
       <r>   -14.9726     0.0000     0.0000 </r>
       <r>   -14.9618     0.0000     0.0000 </r>
       <r>   -14.9509     0.0000     0.0000 </r>
       <r>   -14.9401     0.0000     0.0000 </r>
       <r>   -14.9292     0.0000     0.0000 </r>
       <r>   -14.9184     0.0000     0.0000 </r>
       <r>   -14.9075     0.0000     0.0000 </r>
       <r>   -14.8967     0.0000     0.0000 </r>
       <r>   -14.8858     0.0000     0.0000 </r>
       <r>   -14.8750     0.0162     0.0002 </r>
       <r>   -14.8641     0.6943     0.0077 </r>
       <r>   -14.8533     3.7657     0.0486 </r>
       <r>   -14.8424     2.8916     0.0800 </r>
       <r>   -14.8316     0.3077     0.0833 </r>
       <r>   -14.8207     0.0040     0.0833 </r>
       <r>   -14.8099     0.0000     0.0833 </r>
       <r>   -14.7990     0.0000     0.0833 </r>
       <r>   -14.7882     0.0000     0.0833 </r>
       <r>   -14.7773     0.0000     0.0833 </r>
       <r>   -14.7664     0.0000     0.0833 </r>
       <r>   -14.7556     0.0113     0.0835 </r>
       <r>   -14.7447     0.5653     0.0896 </r>
       <r>   -14.7339     3.5558     0.1282 </r>
       <r>   -14.7230     3.1514     0.1624 </r>
       <r>   -14.7122     0.3897     0.1666 </r>
       <r>   -14.7013     0.0059     0.1667 </r>
       <r>   -14.6905     0.0019     0.1667 </r>
       <r>   -14.6796     0.1933     0.1688 </r>
       <r>   -14.6688     2.3994     0.1948 </r>
       <r>   -14.6579     4.0701     0.2390 </r>
       <r>   -14.6471     0.9840     0.2497 </r>
       <r>   -14.6362     0.0307     0.2500 </r>
       <r>   -14.6254     0.0001     0.2500 </r>
       <r>   -14.6145     0.0000     0.2500 </r>
       <r>   -14.6037     0.0000     0.2500 </r>
       <r>   -14.5928     0.0000     0.2500 </r>
       <r>   -14.5820     0.0000     0.2500 </r>
       <r>   -14.5711     0.0000     0.2500 </r>
       <r>   -14.5603     0.0003     0.2500 </r>
       <r>   -14.5494     0.0779     0.2508 </r>
       <r>   -14.5386     2.2318     0.2751 </r>
       <r>   -14.5277     8.3139     0.3653 </r>
       <r>   -14.5169     4.8340     0.4177 </r>
       <r>   -14.5060     5.2702     0.4749 </r>
       <r>   -14.4952     8.0646     0.5624 </r>
       <r>   -14.4843     1.8693     0.5827 </r>
       <r>   -14.4735     0.0558     0.5833 </r>
       <r>   -14.4626     0.0002     0.5833 </r>
       <r>   -14.4518     0.0000     0.5833 </r>
       <r>   -14.4409     0.0004     0.5833 </r>
       <r>   -14.4301     0.0902     0.5843 </r>
       <r>   -14.4192     2.4077     0.6104 </r>
       <r>   -14.4083     8.4776     0.7024 </r>
       <r>   -14.3975     6.4967     0.7729 </r>
       <r>   -14.3866     8.6338     0.8666 </r>
       <r>   -14.3758     4.3080     0.9134 </r>
       <r>   -14.3649     0.3339     0.9170 </r>
       <r>   -14.3541     1.4054     0.9322 </r>
       <r>   -14.3432     7.9231     1.0182 </r>
       <r>   -14.3324    10.5092     1.1323 </r>
       <r>   -14.3215     8.7754     1.2275 </r>
       <r>   -14.3107     2.0106     1.2493 </r>
       <r>   -14.2998     0.0635     1.2500 </r>
       <r>   -14.2890     0.0002     1.2500 </r>
       <r>   -14.2781     0.0000     1.2500 </r>
       <r>   -14.2673     0.0000     1.2500 </r>
       <r>   -14.2564     0.0000     1.2500 </r>
       <r>   -14.2456     0.0000     1.2500 </r>
       <r>   -14.2347     0.0000     1.2500 </r>
       <r>   -14.2239     0.0000     1.2500 </r>
       <r>   -14.2130     0.0008     1.2500 </r>
       <r>   -14.2022     0.1905     1.2521 </r>
       <r>   -14.1913     4.9527     1.3058 </r>
       <r>   -14.1805    16.8435     1.4886 </r>
       <r>   -14.1696     8.1883     1.5775 </r>
       <r>   -14.1588     0.5378     1.5833 </r>
       <r>   -14.1479     0.0042     1.5833 </r>
       <r>   -14.1371     0.0000     1.5833 </r>
       <r>   -14.1262     0.0000     1.5833 </r>
       <r>   -14.1154     0.0000     1.5833 </r>
       <r>   -14.1045     0.0001     1.5833 </r>
       <r>   -14.0937     0.0481     1.5839 </r>
       <r>   -14.0828     2.3454     1.6093 </r>
       <r>   -14.0720    14.3769     1.7653 </r>
       <r>   -14.0611    12.4278     1.9002 </r>
       <r>   -14.0503     1.4972     1.9164 </r>
       <r>   -14.0394     0.0252     1.9167 </r>
       <r>   -14.0285     0.4303     1.9214 </r>
       <r>   -14.0177     7.3905     2.0016 </r>
       <r>   -14.0068    17.0322     2.1864 </r>
       <r>   -13.9960     5.6164     2.2473 </r>
       <r>   -13.9851     0.2441     2.2500 </r>
       <r>   -13.9743     0.0012     2.2500 </r>
       <r>   -13.9634     0.0000     2.2500 </r>
       <r>   -13.9526     0.0000     2.2500 </r>
       <r>   -13.9417     0.0000     2.2500 </r>
       <r>   -13.9309     0.0000     2.2500 </r>
       <r>   -13.9200     0.0000     2.2500 </r>
       <r>   -13.9092     0.0000     2.2500 </r>
       <r>   -13.8983     0.0000     2.2500 </r>
       <r>   -13.8875     0.0000     2.2500 </r>
       <r>   -13.8766     0.0000     2.2500 </r>
       <r>   -13.8658     0.0000     2.2500 </r>
       <r>   -13.8549     0.0000     2.2500 </r>
       <r>   -13.8441     0.0000     2.2500 </r>
       <r>   -13.8332     0.0000     2.2500 </r>
       <r>   -13.8224     0.0000     2.2500 </r>
       <r>   -13.8115     0.0000     2.2500 </r>
       <r>   -13.8007     0.0000     2.2500 </r>
       <r>   -13.7898     0.0000     2.2500 </r>
       <r>   -13.7790     0.0000     2.2500 </r>
       <r>   -13.7681     0.0000     2.2500 </r>
       <r>   -13.7573     0.0000     2.2500 </r>
       <r>   -13.7464     0.0000     2.2500 </r>
       <r>   -13.7356     0.0000     2.2500 </r>
       <r>   -13.7247     0.0000     2.2500 </r>
       <r>   -13.7139     0.0000     2.2500 </r>
       <r>   -13.7030     0.0000     2.2500 </r>
       <r>   -13.6922     0.0000     2.2500 </r>
       <r>   -13.6813     0.0000     2.2500 </r>
       <r>   -13.6704     0.0000     2.2500 </r>
       <r>   -13.6596     0.0000     2.2500 </r>
       <r>   -13.6487     0.0000     2.2500 </r>
       <r>   -13.6379     0.0000     2.2500 </r>
       <r>   -13.6270     0.0000     2.2500 </r>
       <r>   -13.6162     0.0000     2.2500 </r>
       <r>   -13.6053     0.0009     2.2500 </r>
       <r>   -13.5945     0.1576     2.2517 </r>
       <r>   -13.5836     3.1861     2.2863 </r>
       <r>   -13.5728     8.5580     2.3792 </r>
       <r>   -13.5619     3.5470     2.4177 </r>
       <r>   -13.5511     4.1871     2.4631 </r>
       <r>   -13.5402     8.4444     2.5547 </r>
       <r>   -13.5294     2.5364     2.5822 </r>
       <r>   -13.5185     0.0998     2.5833 </r>
       <r>   -13.5077     0.0006     2.5833 </r>
       <r>   -13.4968     0.0437     2.5838 </r>
       <r>   -13.4860     1.6475     2.6017 </r>
       <r>   -13.4751     8.5490     2.6945 </r>
       <r>   -13.4643    11.4271     2.8185 </r>
       <r>   -13.4534     7.7992     2.9031 </r>
       <r>   -13.4426     1.9929     2.9247 </r>
       <r>   -13.4317     6.2640     2.9927 </r>
       <r>   -13.4209     7.1946     3.0708 </r>
       <r>   -13.4100     2.3973     3.0968 </r>
       <r>   -13.3992     7.3209     3.1762 </r>
       <r>   -13.3883     6.0836     3.2422 </r>
       <r>   -13.3775     0.7056     3.2499 </r>
       <r>   -13.3666     0.0101     3.2500 </r>
       <r>   -13.3558     0.0000     3.2500 </r>
       <r>   -13.3449     0.0000     3.2500 </r>
       <r>   -13.3341     0.0000     3.2500 </r>
       <r>   -13.3232     0.0000     3.2500 </r>
       <r>   -13.3124     0.0000     3.2500 </r>
       <r>   -13.3015     0.0000     3.2500 </r>
       <r>   -13.2906     0.0000     3.2500 </r>
       <r>   -13.2798     0.0030     3.2500 </r>
       <r>   -13.2689     0.4323     3.2547 </r>
       <r>   -13.2581     7.6251     3.3375 </r>
       <r>   -13.2472    22.4451     3.5810 </r>
       <r>   -13.2364    22.5973     3.8262 </r>
       <r>   -13.2255     7.8682     3.9116 </r>
       <r>   -13.2147     0.4613     3.9166 </r>
       <r>   -13.2038     0.0033     3.9167 </r>
       <r>   -13.1930     0.0354     3.9171 </r>
       <r>   -13.1821     1.9658     3.9384 </r>
       <r>   -13.1713    13.6300     4.0863 </r>
       <r>   -13.1604    13.9602     4.2378 </r>
       <r>   -13.1496    11.0444     4.3576 </r>
       <r>   -13.1387    17.5917     4.5485 </r>
       <r>   -13.1279    15.2858     4.7144 </r>
       <r>   -13.1170    15.5388     4.8830 </r>
       <r>   -13.1062     3.6072     4.9222 </r>
       <r>   -13.0953     8.5277     5.0147 </r>
       <r>   -13.0845    16.7597     5.1966 </r>
       <r>   -13.0736     4.7484     5.2481 </r>
       <r>   -13.0628     0.1756     5.2500 </r>
       <r>   -13.0519     0.0007     5.2500 </r>
       <r>   -13.0411     0.0000     5.2500 </r>
       <r>   -13.0302     0.0000     5.2500 </r>
       <r>   -13.0194     0.0000     5.2500 </r>
       <r>   -13.0085     0.0000     5.2500 </r>
       <r>   -12.9977     0.0000     5.2500 </r>
       <r>   -12.9868     0.0000     5.2500 </r>
       <r>   -12.9760     0.0000     5.2500 </r>
       <r>   -12.9651     0.0000     5.2500 </r>
       <r>   -12.9543     0.0000     5.2500 </r>
       <r>   -12.9434     0.0000     5.2500 </r>
       <r>   -12.9325     0.0000     5.2500 </r>
       <r>   -12.9217     0.0000     5.2500 </r>
       <r>   -12.9108     0.0000     5.2500 </r>
       <r>   -12.9000     0.0000     5.2500 </r>
       <r>   -12.8891     0.0000     5.2500 </r>
       <r>   -12.8783     0.0000     5.2500 </r>
       <r>   -12.8674     0.0000     5.2500 </r>
       <r>   -12.8566     0.0000     5.2500 </r>
       <r>   -12.8457     0.0000     5.2500 </r>
       <r>   -12.8349     0.0000     5.2500 </r>
       <r>   -12.8240     0.0000     5.2500 </r>
       <r>   -12.8132     0.0000     5.2500 </r>
       <r>   -12.8023     0.0000     5.2500 </r>
       <r>   -12.7915     0.0000     5.2500 </r>
       <r>   -12.7806     0.0000     5.2500 </r>
       <r>   -12.7698     0.0000     5.2500 </r>
       <r>   -12.7589     0.0000     5.2500 </r>
       <r>   -12.7481     0.0000     5.2500 </r>
       <r>   -12.7372     0.0000     5.2500 </r>
       <r>   -12.7264     0.0000     5.2500 </r>
       <r>   -12.7155     0.0000     5.2500 </r>
       <r>   -12.7047     0.0000     5.2500 </r>
       <r>   -12.6938     0.0000     5.2500 </r>
       <r>   -12.6830     0.0000     5.2500 </r>
       <r>   -12.6721     0.0000     5.2500 </r>
       <r>   -12.6613     0.0000     5.2500 </r>
       <r>   -12.6504     0.0000     5.2500 </r>
       <r>   -12.6396     0.0000     5.2500 </r>
       <r>   -12.6287     0.0000     5.2500 </r>
       <r>   -12.6179     0.0165     5.2502 </r>
       <r>   -12.6070     0.9440     5.2604 </r>
       <r>   -12.5962     6.7241     5.3334 </r>
       <r>   -12.5853     6.7169     5.4063 </r>
       <r>   -12.5745     0.9409     5.4165 </r>
       <r>   -12.5636     0.0164     5.4167 </r>
       <r>   -12.5527     0.0000     5.4167 </r>
       <r>   -12.5419     0.0000     5.4167 </r>
       <r>   -12.5310     0.0000     5.4167 </r>
       <r>   -12.5202     0.0000     5.4167 </r>
       <r>   -12.5093     0.0000     5.4167 </r>
       <r>   -12.4985     0.0000     5.4167 </r>
       <r>   -12.4876     0.0027     5.4167 </r>
       <r>   -12.4768     0.3179     5.4201 </r>
       <r>   -12.4659     4.4111     5.4680 </r>
       <r>   -12.4551     8.3122     5.5582 </r>
       <r>   -12.4442     2.2364     5.5825 </r>
       <r>   -12.4334     0.0783     5.5833 </r>
       <r>   -12.4225     0.0254     5.5836 </r>
       <r>   -12.4117     1.2006     5.5966 </r>
       <r>   -12.4008     7.4135     5.6771 </r>
       <r>   -12.3900    11.0075     5.7965 </r>
       <r>   -12.3791    19.1304     6.0041 </r>
       <r>   -12.3683    12.7162     6.1421 </r>
       <r>   -12.3574     2.1777     6.1657 </r>
       <r>   -12.3466     0.0848     6.1667 </r>
       <r>   -12.3357     0.0688     6.1674 </r>
       <r>   -12.3249     2.8573     6.1984 </r>
       <r>   -12.3140    15.1735     6.3631 </r>
       <r>   -12.3032    11.4343     6.4871 </r>
       <r>   -12.2923     2.7862     6.5174 </r>
       <r>   -12.2815    17.8091     6.7106 </r>
       <r>   -12.2706    31.8837     7.0566 </r>
       <r>   -12.2598     9.6873     7.1617 </r>
       <r>   -12.2489     0.4509     7.1666 </r>
       <r>   -12.2381     0.0027     7.1667 </r>
       <r>   -12.2272     0.0000     7.1667 </r>
       <r>   -12.2164     0.0000     7.1667 </r>
       <r>   -12.2055     0.0000     7.1667 </r>
       <r>   -12.1946     0.0000     7.1667 </r>
       <r>   -12.1838     0.0000     7.1667 </r>
       <r>   -12.1729     0.0277     7.1670 </r>
       <r>   -12.1621     1.7034     7.1855 </r>
       <r>   -12.1512    13.0010     7.3265 </r>
       <r>   -12.1404    14.1736     7.4803 </r>
       <r>   -12.1295     4.9598     7.5342 </r>
       <r>   -12.1187     3.8227     7.5756 </r>
       <r>   -12.1078     1.5459     7.5924 </r>
       <r>   -12.0970     9.9780     7.7007 </r>
       <r>   -12.0861    16.1587     7.8760 </r>
       <r>   -12.0753     5.7587     7.9385 </r>
       <r>   -12.0644     8.3143     8.0288 </r>
       <r>   -12.0536     4.8151     8.0810 </r>
       <r>   -12.0427     3.4661     8.1186 </r>
       <r>   -12.0319     8.5562     8.2115 </r>
       <r>   -12.0210     3.3730     8.2481 </r>
       <r>   -12.0102     0.1774     8.2500 </r>
       <r>   -11.9993     0.0011     8.2500 </r>
       <r>   -11.9885     0.0021     8.2500 </r>
       <r>   -11.9776     0.2685     8.2529 </r>
       <r>   -11.9668     4.1228     8.2977 </r>
       <r>   -11.9559     9.4369     8.4001 </r>
       <r>   -11.9451     6.5712     8.4714 </r>
       <r>   -11.9342     2.4553     8.4980 </r>
       <r>   -11.9234     0.6752     8.5054 </r>
       <r>   -11.9125     5.2930     8.5628 </r>
       <r>   -11.9017     7.8657     8.6481 </r>
       <r>   -11.8908     1.6615     8.6662 </r>
       <r>   -11.8800     0.0498     8.6667 </r>
       <r>   -11.8691     0.5924     8.6731 </r>
       <r>   -11.8583     8.5493     8.7659 </r>
       <r>   -11.8474    16.7258     8.9474 </r>
       <r>   -11.8366     4.6746     8.9981 </r>
       <r>   -11.8257     0.1704     9.0000 </r>
       <r>   -11.8148     0.0142     9.0001 </r>
       <r>   -11.8040     0.8379     9.0092 </r>
       <r>   -11.7931     6.4627     9.0794 </r>
       <r>   -11.7823     7.0553     9.1559 </r>
       <r>   -11.7714     4.3259     9.2029 </r>
       <r>   -11.7606    15.6936     9.3732 </r>
       <r>   -11.7497    10.6804     9.4891 </r>
       <r>   -11.7389     1.6297     9.5068 </r>
       <r>   -11.7280     8.7872     9.6021 </r>
       <r>   -11.7172    16.6423     9.7827 </r>
       <r>   -11.7063     4.5066     9.8316 </r>
       <r>   -11.6955     0.1588     9.8333 </r>
       <r>   -11.6846     0.0006     9.8333 </r>
       <r>   -11.6738     0.0000     9.8333 </r>
       <r>   -11.6629     0.0000     9.8333 </r>
       <r>   -11.6521     0.0000     9.8333 </r>
       <r>   -11.6412     0.0009     9.8333 </r>
       <r>   -11.6304     0.1535     9.8350 </r>
       <r>   -11.6195     3.1449     9.8691 </r>
       <r>   -11.6087     8.5548     9.9620 </r>
       <r>   -11.5978     3.3311     9.9981 </r>
       <r>   -11.5870     0.2001    10.0003 </r>
       <r>   -11.5761     1.2614    10.0140 </r>
       <r>   -11.5653     7.3373    10.0936 </r>
       <r>   -11.5544     6.0342    10.1591 </r>
       <r>   -11.5436     0.6900    10.1666 </r>
       <r>   -11.5327     0.0374    10.1670 </r>
       <r>   -11.5219     1.7061    10.1855 </r>
       <r>   -11.5110    13.0023    10.3266 </r>
       <r>   -11.5002    13.8637    10.4770 </r>
       <r>   -11.4893     2.0789    10.4996 </r>
       <r>   -11.4785     0.0390    10.5000 </r>
       <r>   -11.4676     0.0003    10.5000 </r>
       <r>   -11.4567     0.0748    10.5008 </r>
       <r>   -11.4459     3.0060    10.5334 </r>
       <r>   -11.4350    15.3668    10.7002 </r>
       <r>   -11.4242    11.1403    10.8211 </r>
       <r>   -11.4133     1.1160    10.8332 </r>
       <r>   -11.4025     0.0136    10.8333 </r>
       <r>   -11.3916     0.0000    10.8333 </r>
       <r>   -11.3808     0.0000    10.8333 </r>
       <r>   -11.3699     0.0000    10.8333 </r>
       <r>   -11.3591     0.0080    10.8334 </r>
       <r>   -11.3482     0.8086    10.8422 </r>
       <r>   -11.3374     9.7805    10.9483 </r>
       <r>   -11.3265    16.1941    11.1241 </r>
       <r>   -11.3157     4.5170    11.1731 </r>
       <r>   -11.3048     9.3169    11.2742 </r>
       <r>   -11.2940    16.4668    11.4529 </r>
       <r>   -11.2831     4.2041    11.4985 </r>
       <r>   -11.2723     0.1391    11.5000 </r>
       <r>   -11.2614     0.0005    11.5000 </r>
       <r>   -11.2506     0.0000    11.5000 </r>
       <r>   -11.2397     0.0000    11.5000 </r>
       <r>   -11.2289     0.0000    11.5000 </r>
       <r>   -11.2180     0.0000    11.5000 </r>
       <r>   -11.2072     0.0000    11.5000 </r>
       <r>   -11.1963     0.0000    11.5000 </r>
       <r>   -11.1855     0.0000    11.5000 </r>
       <r>   -11.1746     0.0000    11.5000 </r>
       <r>   -11.1638     0.0000    11.5000 </r>
       <r>   -11.1529     0.0000    11.5000 </r>
       <r>   -11.1421     0.0000    11.5000 </r>
       <r>   -11.1312     0.0000    11.5000 </r>
       <r>   -11.1204     0.0000    11.5000 </r>
       <r>   -11.1095     0.0000    11.5000 </r>
       <r>   -11.0987     0.0000    11.5000 </r>
       <r>   -11.0878     0.0000    11.5000 </r>
       <r>   -11.0769     0.0000    11.5000 </r>
       <r>   -11.0661     0.0001    11.5000 </r>
       <r>   -11.0552     0.0394    11.5004 </r>
       <r>   -11.0444     1.5473    11.5172 </r>
       <r>   -11.0335     7.7375    11.6012 </r>
       <r>   -11.0227     5.4905    11.6608 </r>
       <r>   -11.0118     0.5377    11.6666 </r>
       <r>   -11.0010     0.0064    11.6667 </r>
       <r>   -10.9901     0.0000    11.6667 </r>
       <r>   -10.9793     0.0000    11.6667 </r>
       <r>   -10.9684     0.0000    11.6667 </r>
       <r>   -10.9576     0.0000    11.6667 </r>
       <r>   -10.9467     0.0000    11.6667 </r>
       <r>   -10.9359     0.0000    11.6667 </r>
       <r>   -10.9250     0.0000    11.6667 </r>
       <r>   -10.9142     0.0000    11.6667 </r>
       <r>   -10.9033     0.0000    11.6667 </r>
       <r>   -10.8925     0.0000    11.6667 </r>
       <r>   -10.8816     0.0000    11.6667 </r>
       <r>   -10.8708     0.0000    11.6667 </r>
       <r>   -10.8599     0.0000    11.6667 </r>
       <r>   -10.8491     0.0000    11.6667 </r>
       <r>   -10.8382     0.0000    11.6667 </r>
       <r>   -10.8274     0.0001    11.6667 </r>
       <r>   -10.8165     0.0266    11.6670 </r>
       <r>   -10.8057     1.2412    11.6804 </r>
       <r>   -10.7948     7.3061    11.7597 </r>
       <r>   -10.7840     6.0728    11.8256 </r>
       <r>   -10.7731     0.7022    11.8332 </r>
       <r>   -10.7623     0.0100    11.8333 </r>
       <r>   -10.7514     0.0000    11.8333 </r>
       <r>   -10.7406     0.0000    11.8333 </r>
       <r>   -10.7297     0.0000    11.8333 </r>
       <r>   -10.7189     0.0000    11.8333 </r>
       <r>   -10.7080     0.0000    11.8333 </r>
       <r>   -10.6971     0.0000    11.8333 </r>
       <r>   -10.6863     0.0000    11.8333 </r>
       <r>   -10.6754     0.0000    11.8333 </r>
       <r>   -10.6646     0.0000    11.8333 </r>
       <r>   -10.6537     0.0000    11.8333 </r>
       <r>   -10.6429     0.0136    11.8335 </r>
       <r>   -10.6320     0.8444    11.8426 </r>
       <r>   -10.6212     6.4794    11.9130 </r>
       <r>   -10.6103     6.9525    11.9884 </r>
       <r>   -10.5995     1.0491    11.9998 </r>
       <r>   -10.5886     0.0198    12.0000 </r>
       <r>   -10.5778     0.0000    12.0000 </r>
       <r>   -10.5669     0.0000    12.0000 </r>
       <r>   -10.5561     0.0000    12.0000 </r>
       <r>   -10.5452     0.0000    12.0000 </r>
       <r>   -10.5344     0.0000    12.0000 </r>
       <r>   -10.5235     0.0000    12.0000 </r>
       <r>   -10.5127     0.0000    12.0000 </r>
       <r>   -10.5018     0.0000    12.0000 </r>
       <r>   -10.4910     0.0000    12.0000 </r>
       <r>   -10.4801     0.0000    12.0000 </r>
       <r>   -10.4693     0.0000    12.0000 </r>
       <r>   -10.4584     0.0000    12.0000 </r>
       <r>   -10.4476     0.0000    12.0000 </r>
       <r>   -10.4367     0.0000    12.0000 </r>
       <r>   -10.4259     0.0000    12.0000 </r>
       <r>   -10.4150     0.0000    12.0000 </r>
       <r>   -10.4042     0.0000    12.0000 </r>
       <r>   -10.3933     0.0000    12.0000 </r>
       <r>   -10.3825     0.0000    12.0000 </r>
       <r>   -10.3716     0.0000    12.0000 </r>
       <r>   -10.3608     0.0000    12.0000 </r>
       <r>   -10.3499     0.0000    12.0000 </r>
       <r>   -10.3390     0.0000    12.0000 </r>
       <r>   -10.3282     0.0000    12.0000 </r>
       <r>   -10.3173     0.0000    12.0000 </r>
       <r>   -10.3065     0.0000    12.0000 </r>
       <r>   -10.2956     0.0000    12.0000 </r>
       <r>   -10.2848     0.0000    12.0000 </r>
       <r>   -10.2739     0.0000    12.0000 </r>
       <r>   -10.2631     0.0199    12.0002 </r>
       <r>   -10.2522     1.0512    12.0116 </r>
       <r>   -10.2414     6.9567    12.0871 </r>
       <r>   -10.2305     6.4749    12.1574 </r>
       <r>   -10.2197     0.8426    12.1665 </r>
       <r>   -10.2088     0.0136    12.1667 </r>
       <r>   -10.1980     0.0000    12.1667 </r>
       <r>   -10.1871     0.0042    12.1667 </r>
       <r>   -10.1763     0.4170    12.1712 </r>
       <r>   -10.1654     4.9542    12.2250 </r>
       <r>   -10.1546     8.1884    12.3139 </r>
       <r>   -10.1437     4.7423    12.3653 </r>
       <r>   -10.1329     8.5837    12.4585 </r>
       <r>   -10.1220     3.6207    12.4978 </r>
       <r>   -10.1112     0.2059    12.5000 </r>
       <r>   -10.1003     0.0014    12.5000 </r>
       <r>   -10.0895     0.0000    12.5000 </r>
       <r>   -10.0786     0.0000    12.5000 </r>
       <r>   -10.0678     0.0000    12.5000 </r>
       <r>   -10.0569     0.0000    12.5000 </r>
       <r>   -10.0461     0.0000    12.5000 </r>
       <r>   -10.0352     0.0000    12.5000 </r>
       <r>   -10.0244     0.0000    12.5000 </r>
       <r>   -10.0135     0.0000    12.5000 </r>
       <r>   -10.0027     0.0000    12.5000 </r>
       <r>    -9.9918     0.0000    12.5000 </r>
       <r>    -9.9810     0.0000    12.5000 </r>
       <r>    -9.9701     0.0000    12.5000 </r>
       <r>    -9.9592     0.0000    12.5000 </r>
       <r>    -9.9484     0.0000    12.5000 </r>
       <r>    -9.9375     0.0000    12.5000 </r>
       <r>    -9.9267     0.0000    12.5000 </r>
       <r>    -9.9158     0.0000    12.5000 </r>
       <r>    -9.9050     0.0000    12.5000 </r>
       <r>    -9.8941     0.0000    12.5000 </r>
       <r>    -9.8833     0.0000    12.5000 </r>
       <r>    -9.8724     0.0000    12.5000 </r>
       <r>    -9.8616     0.0000    12.5000 </r>
       <r>    -9.8507     0.0000    12.5000 </r>
       <r>    -9.8399     0.0000    12.5000 </r>
       <r>    -9.8290     0.0000    12.5000 </r>
       <r>    -9.8182     0.0000    12.5000 </r>
       <r>    -9.8073     0.0000    12.5000 </r>
       <r>    -9.7965     0.0000    12.5000 </r>
       <r>    -9.7856     0.0000    12.5000 </r>
       <r>    -9.7748     0.0079    12.5001 </r>
       <r>    -9.7639     0.7998    12.5088 </r>
       <r>    -9.7531     9.7358    12.6144 </r>
       <r>    -9.7422    16.2108    12.7903 </r>
       <r>    -9.7314     3.8455    12.8321 </r>
       <r>    -9.7205     0.1176    12.8333 </r>
       <r>    -9.7097     0.0004    12.8333 </r>
       <r>    -9.6988     0.0000    12.8333 </r>
       <r>    -9.6880     0.0000    12.8333 </r>
       <r>    -9.6771     0.0000    12.8333 </r>
       <r>    -9.6663     0.0000    12.8333 </r>
       <r>    -9.6554     0.0000    12.8333 </r>
       <r>    -9.6446     0.0000    12.8333 </r>
       <r>    -9.6337     0.0000    12.8333 </r>
       <r>    -9.6229     0.0001    12.8333 </r>
       <r>    -9.6120     0.0314    12.8337 </r>
       <r>    -9.6011     1.8344    12.8536 </r>
       <r>    -9.5903    13.3220    12.9981 </r>
       <r>    -9.5794    13.5588    13.1453 </r>
       <r>    -9.5686     1.9367    13.1663 </r>
       <r>    -9.5577     0.0350    13.1667 </r>
       <r>    -9.5469     0.1149    13.1679 </r>
       <r>    -9.5360     2.7237    13.1975 </r>
       <r>    -9.5252     8.4978    13.2897 </r>
       <r>    -9.5143     3.7929    13.3308 </r>
       <r>    -9.5035     0.2458    13.3335 </r>
       <r>    -9.4926     1.3375    13.3480 </r>
       <r>    -9.4818    12.2978    13.4815 </r>
       <r>    -9.4709    21.7106    13.7171 </r>
       <r>    -9.4601    19.6342    13.9301 </r>
       <r>    -9.4492     6.2960    13.9985 </r>
       <r>    -9.4384     4.6809    14.0492 </r>
       <r>    -9.4275    16.5800    14.2292 </r>
       <r>    -9.4167     9.0858    14.3278 </r>
       <r>    -9.4058     3.7290    14.3682 </r>
       <r>    -9.3950     8.5566    14.4611 </r>
       <r>    -9.3841     3.4050    14.4980 </r>
       <r>    -9.3733     0.1809    14.5000 </r>
       <r>    -9.3624     0.0011    14.5000 </r>
       <r>    -9.3516     0.0000    14.5000 </r>
       <r>    -9.3407     0.0000    14.5000 </r>
       <r>    -9.3299     0.0000    14.5000 </r>
       <r>    -9.3190     0.0000    14.5000 </r>
       <r>    -9.3082     0.0000    14.5000 </r>
       <r>    -9.2973     0.0103    14.5001 </r>
       <r>    -9.2865     0.9446    14.5104 </r>
       <r>    -9.2756    10.4273    14.6235 </r>
       <r>    -9.2648    15.8259    14.7952 </r>
       <r>    -9.2539     3.4149    14.8323 </r>
       <r>    -9.2431     0.0944    14.8333 </r>
       <r>    -9.2322     0.0003    14.8333 </r>
       <r>    -9.2213     0.0000    14.8333 </r>
       <r>    -9.2105     0.0008    14.8333 </r>
       <r>    -9.1996     0.1878    14.8354 </r>
       <r>    -9.1888     5.0207    14.8899 </r>
       <r>    -9.1779    19.5020    15.1015 </r>
       <r>    -9.1671    16.7283    15.2830 </r>
       <r>    -9.1562     4.3960    15.3307 </r>
       <r>    -9.1454     0.2393    15.3333 </r>
       <r>    -9.1345     0.0017    15.3333 </r>
       <r>    -9.1237     0.0000    15.3333 </r>
       <r>    -9.1128     0.0000    15.3333 </r>
       <r>    -9.1020     0.0000    15.3333 </r>
       <r>    -9.0911     0.0000    15.3333 </r>
       <r>    -9.0803     0.0000    15.3333 </r>
       <r>    -9.0694     0.0004    15.3333 </r>
       <r>    -9.0586     0.1159    15.3346 </r>
       <r>    -9.0477     3.8157    15.3760 </r>
       <r>    -9.0369    16.1872    15.5517 </r>
       <r>    -9.0260     9.8422    15.6585 </r>
       <r>    -9.0152     3.4691    15.6961 </r>
       <r>    -9.0043    14.8834    15.8576 </r>
       <r>    -8.9935    11.8005    15.9857 </r>
       <r>    -8.9826     1.3035    15.9998 </r>
       <r>    -8.9718     0.0177    16.0000 </r>
       <r>    -8.9609     0.0000    16.0000 </r>
       <r>    -8.9501     0.0000    16.0000 </r>
       <r>    -8.9392     0.0000    16.0000 </r>
       <r>    -8.9284     0.0003    16.0000 </r>
       <r>    -8.9175     0.0770    16.0008 </r>
       <r>    -8.9067     2.3142    16.0260 </r>
       <r>    -8.8958    11.8497    16.1545 </r>
       <r>    -8.8850    20.4009    16.3759 </r>
       <r>    -8.8741    10.5301    16.4902 </r>
       <r>    -8.8632     1.2646    16.5039 </r>
       <r>    -8.8524     5.0706    16.5589 </r>
       <r>    -8.8415    14.2553    16.7136 </r>
       <r>    -8.8307    17.8456    16.9073 </r>
       <r>    -8.8198     7.8697    16.9927 </r>
       <r>    -8.8090     0.6675    16.9999 </r>
       <r>    -8.7981     0.0189    17.0001 </r>
       <r>    -8.7873     0.9813    17.0108 </r>
       <r>    -8.7764    10.5888    17.1257 </r>
       <r>    -8.7656    15.7275    17.2963 </r>
       <r>    -8.7547     3.3199    17.3324 </r>
       <r>    -8.7439     0.2053    17.3346 </r>
       <r>    -8.7330     2.7335    17.3643 </r>
       <r>    -8.7222     8.5000    17.4565 </r>
       <r>    -8.7113     3.7818    17.4975 </r>
       <r>    -8.7005     0.2261    17.5000 </r>
       <r>    -8.6896     0.0052    17.5000 </r>
       <r>    -8.6788     0.4927    17.5054 </r>
       <r>    -8.6679     7.8683    17.5908 </r>
[...]
        <r>  0.0000  0.0145  0.0258  0.0099  0.0000  0.0000  0.0000  0.0000  0.0000 </r>
        <r>  0.0000  0.0064  0.0115  0.0222  0.0000  0.0000  0.0000  0.0000  0.0000 </r>
        <r>  0.0000  0.0145  0.0258  0.0099  0.0000  0.0000  0.0000  0.0000  0.0000 </r>
        <r>  0.0000  0.0064  0.0115  0.0222  0.0000  0.0000  0.0000  0.0000  0.0000 </r>
        <r>  0.0091  0.0013  0.0041  0.0054  0.0000  0.0000  0.0000  0.0000  0.0000 </r>
        <r>  0.0204  0.0028  0.0092  0.0024  0.0000  0.0000  0.0000  0.0000  0.0000 </r>
        <r>  0.0096  0.0021  0.0068  0.0102  0.0000  0.0000  0.0000  0.0000  0.0000 </r>
        <r>  0.0215  0.0048  0.0154  0.0045  0.0000  0.0000  0.0000  0.0000  0.0000 </r>
       </set>
       <set comment="band 25">
        <r>  0.0000  0.0005  0.0002  0.0006  0.0000  0.0000  0.0000  0.0000  0.0000 </r>
        <r>  0.0002  0.0022  0.0010  0.0002  0.0000  0.0000  0.0000  0.0000  0.0000 </r>
        <r>  0.0001  0.0000  0.0005  0.0012  0.0000  0.0000  0.0000  0.0000  0.0000 </r>
        <r>  0.0004  0.0001  0.0019  0.0003  0.0000  0.0000  0.0000  0.0000  0.0000 </r>
        <r>  0.0160  0.1229  0.0177  0.0038  0.0000  0.0000  0.0000  0.0000  0.0000 </r>
        <r>  0.0039  0.0302  0.0043  0.0154  0.0000  0.0000  0.0000  0.0000  0.0000 </r>
        <r>  0.0160  0.1229  0.0177  0.0038  0.0000  0.0000  0.0000  0.0000  0.0000 </r>
        <r>  0.0039  0.0302  0.0043  0.0154  0.0000  0.0000  0.0000  0.0000  0.0000 </r>
        <r>  0.0001  0.0000  0.0005  0.0012  0.0000  0.0000  0.0000  0.0000  0.0000 </r>
        <r>  0.0004  0.0001  0.0019  0.0003  0.0000  0.0000  0.0000  0.0000  0.0000 </r>
        <r>  0.0000  0.0005  0.0002  0.0006  0.0000  0.0000  0.0000  0.0000  0.0000 </r>
        <r>  0.0002  0.0022  0.0010  0.0002  0.0000  0.0000  0.0000  0.0000  0.0000 </r>
       </set>
       <set comment="band 26">
        <r>  0.0002  0.0022  0.0010  0.0002  0.0000  0.0000  0.0000  0.0000  0.0000 </r>
        <r>  0.0000  0.0005  0.0002  0.0006  0.0000  0.0000  0.0000  0.0000  0.0000 </r>
        <r>  0.0004  0.0001  0.0019  0.0003  0.0000  0.0000  0.0000  0.0000  0.0000 </r>
        <r>  0.0001  0.0000  0.0005  0.0012  0.0000  0.0000  0.0000  0.0000  0.0000 </r>
        <r>  0.0039  0.0302  0.0043  0.0154  0.0000  0.0000  0.0000  0.0000  0.0000 </r>
        <r>  0.0160  0.1229  0.0177  0.0038  0.0000  0.0000  0.0000  0.0000  0.0000 </r>
        <r>  0.0039  0.0302  0.0043  0.0154  0.0000  0.0000  0.0000  0.0000  0.0000 </r>
        <r>  0.0160  0.1229  0.0177  0.0038  0.0000  0.0000  0.0000  0.0000  0.0000 </r>
        <r>  0.0004  0.0001  0.0019  0.0003  0.0000  0.0000  0.0000  0.0000  0.0000 </r>
        <r>  0.0001  0.0000  0.0005  0.0012  0.0000  0.0000  0.0000  0.0000  0.0000 </r>
        <r>  0.0002  0.0022  0.0010  0.0002  0.0000  0.0000  0.0000  0.0000  0.0000 </r>
        <r>  0.0000  0.0005  0.0002  0.0006  0.0000  0.0000  0.0000  0.0000  0.0000 </r>
       </set>
       <set comment="band 27">
        <r>  0.0118  0.0732  0.0118  0.0007  0.0000  0.0000  0.0000  0.0000  0.0000 </r>
        <r>  0.0008  0.0048  0.0008  0.0101  0.0000  0.0000  0.0000  0.0000  0.0000 </r>
        <r>  0.0075  0.0730  0.0095  0.0006  0.0000  0.0000  0.0000  0.0000  0.0000 </r>
        <r>  0.0005  0.0048  0.0006  0.0085  0.0000  0.0000  0.0000  0.0000  0.0000 </r>
        <r>  0.0000  0.0001  0.0000  0.0000  0.0000  0.0000  0.0000  0.0000  0.0000 </r>
        <r>  0.0007  0.0020  0.0001  0.0000  0.0000  0.0000  0.0000  0.0000  0.0000 </r>
        <r>  0.0000  0.0001  0.0000  0.0000  0.0000  0.0000  0.0000  0.0000  0.0000 </r>
        <r>  0.0007  0.0020  0.0001  0.0000  0.0000  0.0000  0.0000  0.0000  0.0000 </r>
        <r>  0.0075  0.0730  0.0095  0.0006  0.0000  0.0000  0.0000  0.0000  0.0000 </r>
        <r>  0.0005  0.0048  0.0006  0.0085  0.0000  0.0000  0.0000  0.0000  0.0000 </r>
        <r>  0.0118  0.0732  0.0118  0.0007  0.0000  0.0000  0.0000  0.0000  0.0000 </r>
        <r>  0.0008  0.0048  0.0008  0.0101  0.0000  0.0000  0.0000  0.0000  0.0000 </r>
       </set>
       <set comment="band 28">
        <r>  0.0008  0.0048  0.0008  0.0101  0.0000  0.0000  0.0000  0.0000  0.0000 </r>
        <r>  0.0118  0.0732  0.0118  0.0007  0.0000  0.0000  0.0000  0.0000  0.0000 </r>
        <r>  0.0005  0.0048  0.0006  0.0085  0.0000  0.0000  0.0000  0.0000  0.0000 </r>
        <r>  0.0075  0.0730  0.0095  0.0006  0.0000  0.0000  0.0000  0.0000  0.0000 </r>
        <r>  0.0007  0.0020  0.0001  0.0000  0.0000  0.0000  0.0000  0.0000  0.0000 </r>
        <r>  0.0000  0.0001  0.0000  0.0000  0.0000  0.0000  0.0000  0.0000  0.0000 </r>
        <r>  0.0007  0.0020  0.0001  0.0000  0.0000  0.0000  0.0000  0.0000  0.0000 </r>
        <r>  0.0000  0.0001  0.0000  0.0000  0.0000  0.0000  0.0000  0.0000  0.0000 </r>
        <r>  0.0005  0.0048  0.0006  0.0085  0.0000  0.0000  0.0000  0.0000  0.0000 </r>
        <r>  0.0075  0.0730  0.0095  0.0006  0.0000  0.0000  0.0000  0.0000  0.0000 </r>
        <r>  0.0008  0.0048  0.0008  0.0101  0.0000  0.0000  0.0000  0.0000  0.0000 </r>
        <r>  0.0118  0.0732  0.0118  0.0007  0.0000  0.0000  0.0000  0.0000  0.0000 </r>
       </set>
       <set comment="band 29">
        <r>  0.0092  0.0641  0.0098  0.0021  0.0000  0.0000  0.0000  0.0000  0.0000 </r>
        <r>  0.0022  0.0157  0.0024  0.0085  0.0000  0.0000  0.0000  0.0000  0.0000 </r>
        <r>  0.0084  0.0642  0.0094  0.0020  0.0000  0.0000  0.0000  0.0000  0.0000 </r>
        <r>  0.0021  0.0157  0.0023  0.0081  0.0000  0.0000  0.0000  0.0000  0.0000 </r>
        <r>  0.0000  0.0002  0.0007  0.0017  0.0000  0.0000  0.0000  0.0000  0.0000 </r>
        <r>  0.0000  0.0007  0.0027  0.0004  0.0000  0.0000  0.0000  0.0000  0.0000 </r>
        <r>  0.0000  0.0002  0.0007  0.0017  0.0000  0.0000  0.0000  0.0000  0.0000 </r>
        <r>  0.0000  0.0007  0.0027  0.0004  0.0000  0.0000  0.0000  0.0000  0.0000 </r>
        <r>  0.0084  0.0642  0.0094  0.0020  0.0000  0.0000  0.0000  0.0000  0.0000 </r>
        <r>  0.0021  0.0157  0.0023  0.0081  0.0000  0.0000  0.0000  0.0000  0.0000 </r>
        <r>  0.0092  0.0641  0.0098  0.0021  0.0000  0.0000  0.0000  0.0000  0.0000 </r>
        <r>  0.0022  0.0157  0.0024  0.0085  0.0000  0.0000  0.0000  0.0000  0.0000 </r>
       </set>
       <set comment="band 30">
        <r>  0.0022  0.0157  0.0024  0.0085  0.0000  0.0000  0.0000  0.0000  0.0000 </r>
        <r>  0.0092  0.0641  0.0098  0.0021  0.0000  0.0000  0.0000  0.0000  0.0000 </r>
        <r>  0.0021  0.0157  0.0023  0.0081  0.0000  0.0000  0.0000  0.0000  0.0000 </r>
        <r>  0.0084  0.0642  0.0094  0.0020  0.0000  0.0000  0.0000  0.0000  0.0000 </r>
        <r>  0.0000  0.0007  0.0027  0.0004  0.0000  0.0000  0.0000  0.0000  0.0000 </r>
        <r>  0.0000  0.0002  0.0007  0.0017  0.0000  0.0000  0.0000  0.0000  0.0000 </r>
        <r>  0.0000  0.0007  0.0027  0.0004  0.0000  0.0000  0.0000  0.0000  0.0000 </r>
        <r>  0.0000  0.0002  0.0007  0.0017  0.0000  0.0000  0.0000  0.0000  0.0000 </r>
        <r>  0.0021  0.0157  0.0023  0.0081  0.0000  0.0000  0.0000  0.0000  0.0000 </r>
        <r>  0.0084  0.0642  0.0094  0.0020  0.0000  0.0000  0.0000  0.0000  0.0000 </r>
        <r>  0.0022  0.0157  0.0024  0.0085  0.0000  0.0000  0.0000  0.0000  0.0000 </r>
        <r>  0.0092  0.0641  0.0098  0.0021  0.0000  0.0000  0.0000  0.0000  0.0000 </r>
       </set>
       <set comment="band 31">
        <r>  0.0043  0.0177  0.0013  0.0020  0.0000  0.0000  0.0000  0.0000  0.0000 </r>
        <r>  0.0070  0.0290  0.0021  0.0012  0.0000  0.0000  0.0000  0.0000  0.0000 </r>
        <r>  0.0040  0.0183  0.0006  0.0014  0.0000  0.0000  0.0000  0.0000  0.0000 </r>
        <r>  0.0065  0.0298  0.0009  0.0009  0.0000  0.0000  0.0000  0.0000  0.0000 </r>
        <r>  0.0041  0.0035  0.0005  0.0001  0.0000  0.0000  0.0000  0.0000  0.0000 </r>
        <r>  0.0025  0.0022  0.0003  0.0002  0.0000  0.0000  0.0000  0.0000  0.0000 </r>
        <r>  0.0041  0.0035  0.0005  0.0001  0.0000  0.0000  0.0000  0.0000  0.0000 </r>
        <r>  0.0025  0.0022  0.0003  0.0002  0.0000  0.0000  0.0000  0.0000  0.0000 </r>
        <r>  0.0040  0.0183  0.0006  0.0014  0.0000  0.0000  0.0000  0.0000  0.0000 </r>
        <r>  0.0065  0.0298  0.0009  0.0009  0.0000  0.0000  0.0000  0.0000  0.0000 </r>
        <r>  0.0043  0.0177  0.0013  0.0020  0.0000  0.0000  0.0000  0.0000  0.0000 </r>
        <r>  0.0070  0.0290  0.0021  0.0012  0.0000  0.0000  0.0000  0.0000  0.0000 </r>
       </set>
       <set comment="band 32">
        <r>  0.0070  0.0290  0.0021  0.0012  0.0000  0.0000  0.0000  0.0000  0.0000 </r>
        <r>  0.0043  0.0177  0.0013  0.0020  0.0000  0.0000  0.0000  0.0000  0.0000 </r>
        <r>  0.0065  0.0298  0.0009  0.0009  0.0000  0.0000  0.0000  0.0000  0.0000 </r>
        <r>  0.0040  0.0183  0.0006  0.0014  0.0000  0.0000  0.0000  0.0000  0.0000 </r>
        <r>  0.0025  0.0022  0.0003  0.0002  0.0000  0.0000  0.0000  0.0000  0.0000 </r>
        <r>  0.0041  0.0035  0.0005  0.0001  0.0000  0.0000  0.0000  0.0000  0.0000 </r>
        <r>  0.0025  0.0022  0.0003  0.0002  0.0000  0.0000  0.0000  0.0000  0.0000 </r>
        <r>  0.0041  0.0035  0.0005  0.0001  0.0000  0.0000  0.0000  0.0000  0.0000 </r>
        <r>  0.0065  0.0298  0.0009  0.0009  0.0000  0.0000  0.0000  0.0000  0.0000 </r>
        <r>  0.0040  0.0183  0.0006  0.0014  0.0000  0.0000  0.0000  0.0000  0.0000 </r>
        <r>  0.0070  0.0290  0.0021  0.0012  0.0000  0.0000  0.0000  0.0000  0.0000 </r>
        <r>  0.0043  0.0177  0.0013  0.0020  0.0000  0.0000  0.0000  0.0000  0.0000 </r>
       </set>
       <set comment="band 33">
        <r>  0.0002  0.0070  0.0002  0.0001  0.0000  0.0000  0.0000  0.0000  0.0000 </r>
        <r>  0.0002  0.0070  0.0002  0.0001  0.0000  0.0000  0.0000  0.0000  0.0000 </r>
        <r>  0.0044  0.0000  0.0020  0.0009  0.0000  0.0000  0.0000  0.0000  0.0000 </r>
        <r>  0.0044  0.0000  0.0020  0.0009  0.0000  0.0000  0.0000  0.0000  0.0000 </r>
        <r>  0.0110  0.0484  0.0026  0.0030  0.0000  0.0000  0.0000  0.0000  0.0000 </r>
        <r>  0.0111  0.0485  0.0026  0.0030  0.0000  0.0000  0.0000  0.0000  0.0000 </r>
        <r>  0.0110  0.0484  0.0026  0.0030  0.0000  0.0000  0.0000  0.0000  0.0000 </r>
        <r>  0.0111  0.0485  0.0026  0.0030  0.0000  0.0000  0.0000  0.0000  0.0000 </r>
        <r>  0.0044  0.0000  0.0020  0.0009  0.0000  0.0000  0.0000  0.0000  0.0000 </r>
        <r>  0.0044  0.0000  0.0020  0.0009  0.0000  0.0000  0.0000  0.0000  0.0000 </r>
        <r>  0.0002  0.0070  0.0002  0.0001  0.0000  0.0000  0.0000  0.0000  0.0000 </r>
        <r>  0.0002  0.0070  0.0002  0.0001  0.0000  0.0000  0.0000  0.0000  0.0000 </r>
       </set>
       <set comment="band 34">
        <r>  0.0002  0.0070  0.0002  0.0001  0.0000  0.0000  0.0000  0.0000  0.0000 </r>
        <r>  0.0002  0.0070  0.0002  0.0001  0.0000  0.0000  0.0000  0.0000  0.0000 </r>
        <r>  0.0044  0.0000  0.0020  0.0009  0.0000  0.0000  0.0000  0.0000  0.0000 </r>
        <r>  0.0044  0.0000  0.0020  0.0009  0.0000  0.0000  0.0000  0.0000  0.0000 </r>
        <r>  0.0111  0.0485  0.0026  0.0030  0.0000  0.0000  0.0000  0.0000  0.0000 </r>
        <r>  0.0110  0.0484  0.0026  0.0030  0.0000  0.0000  0.0000  0.0000  0.0000 </r>
        <r>  0.0111  0.0485  0.0026  0.0030  0.0000  0.0000  0.0000  0.0000  0.0000 </r>
        <r>  0.0110  0.0484  0.0026  0.0030  0.0000  0.0000  0.0000  0.0000  0.0000 </r>
        <r>  0.0044  0.0000  0.0020  0.0009  0.0000  0.0000  0.0000  0.0000  0.0000 </r>
        <r>  0.0044  0.0000  0.0020  0.0009  0.0000  0.0000  0.0000  0.0000  0.0000 </r>
        <r>  0.0002  0.0070  0.0002  0.0001  0.0000  0.0000  0.0000  0.0000  0.0000 </r>
        <r>  0.0002  0.0070  0.0002  0.0001  0.0000  0.0000  0.0000  0.0000  0.0000 </r>
       </set>
       <set comment="band 35">
        <r>  0.0107  0.0464  0.0018  0.0004  0.0000  0.0000  0.0000  0.0000  0.0000 </r>
        <r>  0.0019  0.0082  0.0003  0.0023  0.0000  0.0000  0.0000  0.0000  0.0000 </r>
        <r>  0.0111  0.0457  0.0040  0.0006  0.0000  0.0000  0.0000  0.0000  0.0000 </r>
        <r>  0.0020  0.0081  0.0007  0.0034  0.0000  0.0000  0.0000  0.0000  0.0000 </r>
        <r>  0.0004  0.0011  0.0006  0.0013  0.0000  0.0000  0.0000  0.0000  0.0000 </r>
        <r>  0.0022  0.0062  0.0031  0.0002  0.0000  0.0000  0.0000  0.0000  0.0000 </r>
        <r>  0.0004  0.0011  0.0006  0.0013  0.0000  0.0000  0.0000  0.0000  0.0000 </r>
        <r>  0.0022  0.0062  0.0031  0.0002  0.0000  0.0000  0.0000  0.0000  0.0000 </r>
        <r>  0.0111  0.0457  0.0040  0.0006  0.0000  0.0000  0.0000  0.0000  0.0000 </r>
        <r>  0.0020  0.0081  0.0007  0.0034  0.0000  0.0000  0.0000  0.0000  0.0000 </r>
        <r>  0.0107  0.0464  0.0018  0.0004  0.0000  0.0000  0.0000  0.0000  0.0000 </r>
        <r>  0.0019  0.0082  0.0003  0.0023  0.0000  0.0000  0.0000  0.0000  0.0000 </r>
       </set>
       <set comment="band 36">
        <r>  0.0019  0.0082  0.0003  0.0023  0.0000  0.0000  0.0000  0.0000  0.0000 </r>
        <r>  0.0107  0.0464  0.0018  0.0004  0.0000  0.0000  0.0000  0.0000  0.0000 </r>
        <r>  0.0020  0.0081  0.0007  0.0034  0.0000  0.0000  0.0000  0.0000  0.0000 </r>
        <r>  0.0111  0.0457  0.0040  0.0006  0.0000  0.0000  0.0000  0.0000  0.0000 </r>
        <r>  0.0022  0.0062  0.0031  0.0002  0.0000  0.0000  0.0000  0.0000  0.0000 </r>
        <r>  0.0004  0.0011  0.0006  0.0013  0.0000  0.0000  0.0000  0.0000  0.0000 </r>
        <r>  0.0022  0.0062  0.0031  0.0002  0.0000  0.0000  0.0000  0.0000  0.0000 </r>
        <r>  0.0004  0.0011  0.0006  0.0013  0.0000  0.0000  0.0000  0.0000  0.0000 </r>
        <r>  0.0020  0.0081  0.0007  0.0034  0.0000  0.0000  0.0000  0.0000  0.0000 </r>
        <r>  0.0111  0.0457  0.0040  0.0006  0.0000  0.0000  0.0000  0.0000  0.0000 </r>
        <r>  0.0019  0.0082  0.0003  0.0023  0.0000  0.0000  0.0000  0.0000  0.0000 </r>
        <r>  0.0107  0.0464  0.0018  0.0004  0.0000  0.0000  0.0000  0.0000  0.0000 </r>
       </set>
       <set comment="band 37">
        <r>  0.0000  0.0001  0.0008  0.0010  0.0000  0.0000  0.0000  0.0000  0.0000 </r>
        <r>  0.0001  0.0000  0.0021  0.0004  0.0000  0.0000  0.0000  0.0000  0.0000 </r>
        <r>  0.0000  0.0002  0.0013  0.0011  0.0000  0.0000  0.0000  0.0000  0.0000 </r>
        <r>  0.0001  0.0000  0.0028  0.0004  0.0000  0.0000  0.0000  0.0000  0.0000 </r>
        <r>  0.0010  0.0007  0.0214  0.0531  0.0000  0.0000  0.0000  0.0000  0.0000 </r>
        <r>  0.0049  0.0026  0.1178  0.0096  0.0000  0.0000  0.0000  0.0000  0.0000 </r>
        <r>  0.0009  0.0007  0.0208  0.0531  0.0000  0.0000  0.0000  0.0000  0.0000 </r>
        <r>  0.0050  0.0025  0.1191  0.0096  0.0000  0.0000  0.0000  0.0000  0.0000 </r>
        <r>  0.0001  0.0004  0.0011  0.0029  0.0000  0.0000  0.0000  0.0000  0.0000 </r>
        <r>  0.0003  0.0000  0.0072  0.0006  0.0000  0.0000  0.0000  0.0000  0.0000 </r>
        <r>  0.0001  0.0002  0.0013  0.0027  0.0000  0.0000  0.0000  0.0000  0.0000 </r>
        <r>  0.0002  0.0001  0.0058  0.0006  0.0000  0.0000  0.0000  0.0000  0.0000 </r>
       </set>
       <set comment="band 38">
        <r>  0.0016  0.0011  0.0318  0.0008  0.0000  0.0000  0.0000  0.0000  0.0000 </r>
        <r>  0.0001  0.0001  0.0017  0.0149  0.0000  0.0000  0.0000  0.0000  0.0000 </r>
        <r>  0.0015  0.0012  0.0347  0.0008  0.0000  0.0000  0.0000  0.0000  0.0000 </r>
        <r>  0.0001  0.0002  0.0020  0.0157  0.0000  0.0000  0.0000  0.0000  0.0000 </r>
        <r>  0.0031  0.0018  0.0718  0.0067  0.0000  0.0000  0.0000  0.0000  0.0000 </r>
        <r>  0.0005  0.0000  0.0160  0.0320  0.0000  0.0000  0.0000  0.0000  0.0000 </r>
        <r>  0.0030  0.0019  0.0703  0.0067  0.0000  0.0000  0.0000  0.0000  0.0000 </r>
        <r>  0.0005  0.0001  0.0149  0.0321  0.0000  0.0000  0.0000  0.0000  0.0000 </r>
        <r>  0.0010  0.0007  0.0240  0.0026  0.0000  0.0000  0.0000  0.0000  0.0000 </r>
        <r>  0.0003  0.0000  0.0070  0.0107  0.0000  0.0000  0.0000  0.0000  0.0000 </r>
        <r>  0.0010  0.0006  0.0216  0.0025  0.0000  0.0000  0.0000  0.0000  0.0000 </r>
        <r>  0.0001  0.0000  0.0052  0.0102  0.0000  0.0000  0.0000  0.0000  0.0000 </r>
       </set>
       <set comment="band 39">
        <r>  0.0015  0.0010  0.0318  0.0235  0.0000  0.0000  0.0000  0.0000  0.0000 </r>
        <r>  0.0025  0.0018  0.0515  0.0146  0.0000  0.0000  0.0000  0.0000  0.0000 </r>
        <r>  0.0016  0.0009  0.0346  0.0250  0.0000  0.0000  0.0000  0.0000  0.0000 </r>
        <r>  0.0028  0.0015  0.0547  0.0155  0.0000  0.0000  0.0000  0.0000  0.0000 </r>
        <r>  0.0000  0.0000  0.0001  0.0000  0.0000  0.0000  0.0000  0.0000  0.0000 </r>
        <r>  0.0000  0.0001  0.0001  0.0000  0.0000  0.0000  0.0000  0.0000  0.0000 </r>
        <r>  0.0000  0.0000  0.0002  0.0000  0.0000  0.0000  0.0000  0.0000  0.0000 </r>
        <r>  0.0000  0.0000  0.0001  0.0000  0.0000  0.0000  0.0000  0.0000  0.0000 </r>
        <r>  0.0006  0.0003  0.0111  0.0239  0.0000  0.0000  0.0000  0.0000  0.0000 </r>
        <r>  0.0026  0.0014  0.0522  0.0051  0.0000  0.0000  0.0000  0.0000  0.0000 </r>
        <r>  0.0005  0.0004  0.0105  0.0224  0.0000  0.0000  0.0000  0.0000  0.0000 </r>
        <r>  0.0024  0.0018  0.0492  0.0048  0.0000  0.0000  0.0000  0.0000  0.0000 </r>
       </set>
       <set comment="band 40">
        <r>  0.0012  0.0010  0.0256  0.0261  0.0000  0.0000  0.0000  0.0000  0.0000 </r>
        <r>  0.0026  0.0016  0.0561  0.0116  0.0000  0.0000  0.0000  0.0000  0.0000 </r>
        <r>  0.0014  0.0008  0.0269  0.0275  0.0000  0.0000  0.0000  0.0000  0.0000 </r>
        <r>  0.0027  0.0014  0.0624  0.0124  0.0000  0.0000  0.0000  0.0000  0.0000 </r>
        <r>  0.0000  0.0002  0.0001  0.0000  0.0000  0.0000  0.0000  0.0000  0.0000 </r>
        <r>  0.0000  0.0000  0.0001  0.0000  0.0000  0.0000  0.0000  0.0000  0.0000 </r>
        <r>  0.0000  0.0001  0.0000  0.0000  0.0000  0.0000  0.0000  0.0000  0.0000 </r>
        <r>  0.0000  0.0001  0.0002  0.0000  0.0000  0.0000  0.0000  0.0000  0.0000 </r>
        <r>  0.0030  0.0017  0.0636  0.0008  0.0000  0.0000  0.0000  0.0000  0.0000 </r>
        <r>  0.0001  0.0000  0.0021  0.0287  0.0000  0.0000  0.0000  0.0000  0.0000 </r>
        <r>  0.0028  0.0020  0.0589  0.0008  0.0000  0.0000  0.0000  0.0000  0.0000 </r>
        <r>  0.0001  0.0000  0.0016  0.0271  0.0000  0.0000  0.0000  0.0000  0.0000 </r>
       </set>
      </set>
     </set>
    </set>
   </array>
  </projected>
 </calculation>
 <structure name="finalpos" >
  <crystal>
   <varray name="basis" >
    <v>       3.34288600       0.00000000       0.00000000 </v>
    <v>       0.00000000      32.60240900       0.00000000 </v>
    <v>       0.00000000       0.00000000       4.37483100 </v>
   </varray>
   <i name="volume">    476.79592902 </i>
   <varray name="rec_basis" >
    <v>       0.29914272       0.00000000       0.00000000 </v>
    <v>       0.00000000       0.03067258       0.00000000 </v>
    <v>       0.00000000       0.00000000       0.22858026 </v>
   </varray>
  </crystal>
  <varray name="positions" >
   <v>       0.00000000       0.30672600       0.91892400 </v>
   <v>       0.50000000       0.30672600       0.58107600 </v>
   <v>       0.00000000       0.37246700       0.08107600 </v>
   <v>       0.50000000       0.37246700       0.41892400 </v>
   <v>       0.50000000       0.46712900       0.91892400 </v>
   <v>       0.00000000       0.46712900       0.58107600 </v>
   <v>       0.50000000       0.53287100       0.08107600 </v>
   <v>       0.00000000       0.53287100       0.41892400 </v>
   <v>       0.00000000       0.62753300       0.91892400 </v>
   <v>       0.50000000       0.62753300       0.58107600 </v>
   <v>       0.00000000       0.69327400       0.08107600 </v>
   <v>       0.50000000       0.69327400       0.41892400 </v>
  </varray>
 </structure>
</modeling>
