  12  12   1   0
  0.3973299E+02  0.3342886E-09  0.3260241E-08  0.4374831E-09  0.5000000E-15
  1.000000000000000E-004
  CAR 
 Generic Input                           
      5.85369724    -15.84080347 2000      0.93883164      1.00000000
    -15.841  0.0000E+00  0.0000E+00
    -15.830  0.0000E+00  0.0000E+00
    -15.819  0.0000E+00  0.0000E+00
    -15.808  0.0000E+00  0.0000E+00
    -15.797  0.0000E+00  0.0000E+00
    -15.787  0.0000E+00  0.0000E+00
    -15.776  0.0000E+00  0.0000E+00
    -15.765  0.0000E+00  0.0000E+00
    -15.754  0.0000E+00  0.0000E+00
    -15.743  0.0000E+00  0.0000E+00
    -15.732  0.0000E+00  0.0000E+00
    -15.721  0.0000E+00  0.0000E+00
    -15.711  0.0000E+00  0.0000E+00
    -15.700  0.0000E+00  0.0000E+00
    -15.689  0.0000E+00  0.0000E+00
    -15.678  0.0000E+00  0.0000E+00
    -15.667  0.0000E+00  0.0000E+00
    -15.656  0.0000E+00  0.0000E+00
    -15.645  0.0000E+00  0.0000E+00
    -15.635  0.0000E+00  0.0000E+00
    -15.624  0.0000E+00  0.0000E+00
    -15.613  0.0000E+00  0.0000E+00
    -15.602  0.0000E+00  0.0000E+00
    -15.591  0.0000E+00  0.0000E+00
    -15.580  0.0000E+00  0.0000E+00
    -15.569  0.0000E+00  0.0000E+00
    -15.559  0.0000E+00  0.0000E+00
    -15.548  0.0000E+00  0.0000E+00
    -15.537  0.0000E+00  0.0000E+00
    -15.526  0.0000E+00  0.0000E+00
    -15.515  0.0000E+00  0.0000E+00
    -15.504  0.0000E+00  0.0000E+00
    -15.494  0.0000E+00  0.0000E+00
    -15.483  0.0000E+00  0.0000E+00
    -15.472  0.0000E+00  0.0000E+00
    -15.461  0.0000E+00  0.0000E+00
    -15.450  0.0000E+00  0.0000E+00
    -15.439  0.0000E+00  0.0000E+00
    -15.428  0.0000E+00  0.0000E+00
    -15.418  0.0000E+00  0.0000E+00
    -15.407  0.0000E+00  0.0000E+00
    -15.396  0.0000E+00  0.0000E+00
    -15.385  0.0000E+00  0.0000E+00
    -15.374  0.0000E+00  0.0000E+00
    -15.363  0.0000E+00  0.0000E+00
    -15.352  0.0000E+00  0.0000E+00
    -15.342  0.0000E+00  0.0000E+00
    -15.331  0.0000E+00  0.0000E+00
    -15.320  0.0000E+00  0.0000E+00
    -15.309  0.0000E+00  0.0000E+00
    -15.298  0.0000E+00  0.0000E+00
    -15.287  0.0000E+00  0.0000E+00
    -15.276  0.0000E+00  0.0000E+00
    -15.266  0.0000E+00  0.0000E+00
    -15.255  0.0000E+00  0.0000E+00
    -15.244  0.0000E+00  0.0000E+00
    -15.233  0.0000E+00  0.0000E+00
    -15.222  0.0000E+00  0.0000E+00
    -15.211  0.0000E+00  0.0000E+00
    -15.200  0.0000E+00  0.0000E+00
    -15.190  0.0000E+00  0.0000E+00
    -15.179  0.0000E+00  0.0000E+00
    -15.168  0.0000E+00  0.0000E+00
    -15.157  0.0000E+00  0.0000E+00
    -15.146  0.0000E+00  0.0000E+00
    -15.135  0.0000E+00  0.0000E+00
    -15.125  0.0000E+00  0.0000E+00
    -15.114  0.0000E+00  0.0000E+00
    -15.103  0.0000E+00  0.0000E+00
    -15.092  0.0000E+00  0.0000E+00
    -15.081  0.0000E+00  0.0000E+00
    -15.070  0.0000E+00  0.0000E+00
    -15.059  0.0000E+00  0.0000E+00
    -15.049  0.0000E+00  0.0000E+00
    -15.038  0.0000E+00  0.0000E+00
    -15.027  0.0000E+00  0.0000E+00
    -15.016  0.0000E+00  0.0000E+00
    -15.005  0.0000E+00  0.0000E+00
    -14.994  0.0000E+00  0.0000E+00
    -14.983  0.0000E+00  0.0000E+00
    -14.973  0.0000E+00  0.0000E+00
    -14.962  0.0000E+00  0.0000E+00
    -14.951  0.0000E+00  0.0000E+00
    -14.940  0.0000E+00  0.0000E+00
    -14.929  0.0000E+00  0.0000E+00
    -14.918  0.0000E+00  0.0000E+00
    -14.907  0.3205E-12  0.3479E-14
    -14.897  0.1164E-07  0.1263E-09
    -14.886  0.4250E-04  0.4613E-06
    -14.875  0.1621E-01  0.1763E-03
    -14.864  0.6940E+00  0.7708E-02
    -14.853  0.3765E+01  0.4857E-01
    -14.842  0.2891E+01  0.7995E-01
    -14.832  0.3075E+00  0.8329E-01
    -14.821  0.3995E-02  0.8333E-01
    -14.810  0.5688E-05  0.8333E-01
    -14.799  0.8348E-09  0.8333E-01
    -14.788  0.1534E-12  0.8333E-01
    -14.777  0.6033E-08  0.8333E-01
    -14.766  0.2583E-04  0.8333E-01
    -14.756  0.1151E-01  0.8346E-01
    -14.745  0.5721E+00  0.8967E-01
    -14.734  0.3569E+01  0.1284E+00
    -14.723  0.3136E+01  0.1624E+00
    -14.712  0.3843E+00  0.1666E+00
    -14.701  0.5806E-02  0.1667E+00
    -14.690  0.1914E-02  0.1667E+00
    -14.680  0.1956E+00  0.1688E+00
    -14.669  0.2412E+01  0.1950E+00
    -14.658  0.4064E+01  0.2391E+00
    -14.647  0.9754E+00  0.2497E+00
    -14.636  0.3020E-01  0.2500E+00
    -14.625  0.1064E-03  0.2500E+00
    -14.614  0.3943E-07  0.2500E+00
    -14.604  0.1475E-11  0.2500E+00
    -14.593  0.0000E+00  0.2500E+00
    -14.582  0.5788E-11  0.2500E+00
    -14.571  0.1348E-06  0.2500E+00
    -14.560  0.3175E-03  0.2500E+00
    -14.549  0.7893E-01  0.2509E+00
    -14.538  0.2247E+01  0.2752E+00
    -14.528  0.8322E+01  0.3656E+00
    -14.517  0.4816E+01  0.4178E+00
    -14.506  0.5290E+01  0.4752E+00
    -14.495  0.8051E+01  0.5626E+00
    -14.484  0.1853E+01  0.5827E+00
    -14.473  0.5489E-01  0.5833E+00
    -14.463  0.1846E-03  0.5833E+00
    -14.452  0.2536E-06  0.5833E+00
    -14.441  0.4072E-03  0.5833E+00
    -14.430  0.9311E-01  0.5843E+00
    -14.419  0.2448E+01  0.6109E+00
    -14.408  0.8497E+01  0.7031E+00
    -14.397  0.6484E+01  0.7735E+00
    -14.387  0.8645E+01  0.8673E+00
    -14.376  0.4252E+01  0.9135E+00
    -14.365  0.3261E+00  0.9170E+00
    -14.354  0.1431E+01  0.9325E+00
    -14.343  0.7967E+01  0.1019E+01
    -14.332  0.1051E+02  0.1133E+01
    -14.321  0.8737E+01  0.1228E+01
    -14.311  0.1976E+01  0.1249E+01
    -14.300  0.6145E-01  0.1250E+01
    -14.289  0.2183E-03  0.1250E+01
    -14.278  0.8158E-07  0.1250E+01
    -14.267  0.3079E-11  0.1250E+01
    -14.256  0.0000E+00  0.1250E+01
    -14.245  0.0000E+00  0.1250E+01
    -14.235  0.2011E-10  0.1250E+01
    -14.224  0.4179E-06  0.1250E+01
    -14.213  0.8794E-03  0.1250E+01
    -14.202  0.1959E+00  0.1252E+01
    -14.191  0.5025E+01  0.1307E+01
    -14.180  0.1687E+02  0.1490E+01
    -14.169  0.8094E+01  0.1578E+01
    -14.159  0.5241E+00  0.1583E+01
    -14.148  0.4019E-02  0.1583E+01
    -14.137  0.3315E-05  0.1583E+01
    -14.126  0.2800E-09  0.1583E+01
    -14.115  0.2908E-07  0.1583E+01
    -14.104  0.1191E-03  0.1583E+01
    -14.094  0.5077E-01  0.1584E+01
    -14.083  0.2419E+01  0.1610E+01
    -14.072  0.1451E+02  0.1768E+01
    -14.061  0.1227E+02  0.1901E+01
    -14.050  0.1445E+01  0.1916E+01
    -14.039  0.2405E-01  0.1917E+01
    -14.028  0.4475E+00  0.1922E+01
    -14.018  0.7528E+01  0.2003E+01
    -14.007  0.1701E+02  0.2188E+01
    -13.996  0.5495E+01  0.2247E+01
    -13.985  0.2336E+00  0.2250E+01
    -13.974  0.1149E-02  0.2250E+01
    -13.963  0.5995E-06  0.2250E+01
    -13.952  0.3173E-10  0.2250E+01
    -13.942  0.0000E+00  0.2250E+01
    -13.931  0.0000E+00  0.2250E+01
    -13.920  0.0000E+00  0.2250E+01
    -13.909  0.0000E+00  0.2250E+01
    -13.898  0.0000E+00  0.2250E+01
    -13.887  0.0000E+00  0.2250E+01
    -13.876  0.0000E+00  0.2250E+01
    -13.866  0.0000E+00  0.2250E+01
    -13.855  0.0000E+00  0.2250E+01
    -13.844  0.0000E+00  0.2250E+01
    -13.833  0.0000E+00  0.2250E+01
    -13.822  0.0000E+00  0.2250E+01
    -13.811  0.0000E+00  0.2250E+01
    -13.801  0.0000E+00  0.2250E+01
    -13.790  0.0000E+00  0.2250E+01
    -13.779  0.0000E+00  0.2250E+01
    -13.768  0.0000E+00  0.2250E+01
    -13.757  0.0000E+00  0.2250E+01
    -13.746  0.0000E+00  0.2250E+01
    -13.735  0.0000E+00  0.2250E+01
    -13.725  0.0000E+00  0.2250E+01
    -13.714  0.0000E+00  0.2250E+01
    -13.703  0.0000E+00  0.2250E+01
    -13.692  0.0000E+00  0.2250E+01
    -13.681  0.0000E+00  0.2250E+01
    -13.670  0.0000E+00  0.2250E+01
    -13.659  0.0000E+00  0.2250E+01
    -13.649  0.0000E+00  0.2250E+01
    -13.638  0.0000E+00  0.2250E+01
    -13.627  0.4019E-10  0.2250E+01
    -13.616  0.6240E-06  0.2250E+01
    -13.605  0.9854E-03  0.2250E+01
    -13.594  0.1660E+00  0.2252E+01
    -13.583  0.3268E+01  0.2287E+01
    -13.573  0.8558E+01  0.2380E+01
    -13.562  0.3476E+01  0.2418E+01
    -13.551  0.4266E+01  0.2464E+01
    -13.540  0.8419E+01  0.2556E+01
    -13.529  0.2465E+01  0.2582E+01
    -13.518  0.9440E-01  0.2583E+01
    -13.507  0.5628E-03  0.2583E+01
    -13.497  0.4708E-01  0.2584E+01
    -13.486  0.1716E+01  0.2602E+01
    -13.475  0.8660E+01  0.2696E+01
    -13.464  0.1143E+02  0.2821E+01
    -13.453  0.7671E+01  0.2904E+01
    -13.442  0.1977E+01  0.2925E+01
    -13.432  0.6387E+01  0.2995E+01
    -13.421  0.7086E+01  0.3071E+01
    -13.410  0.2395E+01  0.3097E+01
    -13.399  0.7412E+01  0.3178E+01
    -13.388  0.5967E+01  0.3243E+01
    -13.377  0.6691E+00  0.3250E+01
    -13.366  0.9195E-02  0.3250E+01
    -13.356  0.1388E-04  0.3250E+01
    -13.345  0.2161E-08  0.3250E+01
    -13.334  0.3410E-13  0.3250E+01
    -13.323  0.0000E+00  0.3250E+01
    -13.312  0.1705E-14  0.3250E+01
    -13.301  0.1938E-09  0.3250E+01
    -13.290  0.2491E-05  0.3250E+01
    -13.280  0.3266E-02  0.3250E+01
    -13.269  0.4605E+00  0.3255E+01
    -13.258  0.7862E+01  0.3340E+01
    -13.247  0.2259E+02  0.3585E+01
    -13.236  0.2245E+02  0.3829E+01
    -13.225  0.7635E+01  0.3912E+01
    -13.214  0.4333E+00  0.3917E+01
    -13.204  0.3051E-02  0.3917E+01
    -13.193  0.3895E-01  0.3917E+01
    -13.182  0.2079E+01  0.3940E+01
    -13.171  0.1387E+02  0.4090E+01
    -13.160  0.1376E+02  0.4240E+01
    -13.149  0.1124E+02  0.4362E+01
    -13.138  0.1753E+02  0.4552E+01
    -13.128  0.1539E+02  0.4719E+01
    -13.117  0.1531E+02  0.4885E+01
    -13.106  0.3482E+01  0.4923E+01
    -13.095  0.8800E+01  0.5018E+01
    -13.084  0.1666E+02  0.5199E+01
    -13.073  0.4537E+01  0.5248E+01
    -13.063  0.1607E+00  0.5250E+01
    -13.052  0.6525E-03  0.5250E+01
    -13.041  0.2796E-06  0.5250E+01
    -13.030  0.1212E-10  0.5250E+01
    -13.019  0.0000E+00  0.5250E+01
    -13.008  0.0000E+00  0.5250E+01
    -12.997  0.0000E+00  0.5250E+01
    -12.987  0.0000E+00  0.5250E+01
    -12.976  0.0000E+00  0.5250E+01
    -12.965  0.0000E+00  0.5250E+01
    -12.954  0.0000E+00  0.5250E+01
    -12.943  0.0000E+00  0.5250E+01
    -12.932  0.0000E+00  0.5250E+01
    -12.921  0.0000E+00  0.5250E+01
    -12.911  0.0000E+00  0.5250E+01
    -12.900  0.0000E+00  0.5250E+01
    -12.889  0.0000E+00  0.5250E+01
    -12.878  0.0000E+00  0.5250E+01
    -12.867  0.0000E+00  0.5250E+01
    -12.856  0.0000E+00  0.5250E+01
    -12.845  0.0000E+00  0.5250E+01
    -12.835  0.0000E+00  0.5250E+01
    -12.824  0.0000E+00  0.5250E+01
    -12.813  0.0000E+00  0.5250E+01
    -12.802  0.0000E+00  0.5250E+01
    -12.791  0.0000E+00  0.5250E+01
    -12.780  0.0000E+00  0.5250E+01
    -12.769  0.0000E+00  0.5250E+01
    -12.759  0.0000E+00  0.5250E+01
    -12.748  0.0000E+00  0.5250E+01
    -12.737  0.0000E+00  0.5250E+01
    -12.726  0.0000E+00  0.5250E+01
    -12.715  0.0000E+00  0.5250E+01
    -12.704  0.0000E+00  0.5250E+01
    -12.694  0.0000E+00  0.5250E+01
    -12.683  0.0000E+00  0.5250E+01
    -12.672  0.0000E+00  0.5250E+01
    -12.661  0.0000E+00  0.5250E+01
    -12.650  0.1714E-12  0.5250E+01
    -12.639  0.8060E-08  0.5250E+01
    -12.628  0.3801E-04  0.5250E+01
    -12.618  0.1861E-01  0.5250E+01
    -12.607  0.1013E+01  0.5261E+01
    -12.596  0.6877E+01  0.5336E+01
    -12.585  0.6559E+01  0.5407E+01
    -12.574  0.8752E+00  0.5417E+01
    -12.563  0.1448E-01  0.5417E+01
    -12.552  0.2650E-04  0.5417E+01
    -12.542  0.5025E-08  0.5417E+01
    -12.531  0.9548E-13  0.5417E+01
    -12.520  0.3410E-14  0.5417E+01
    -12.509  0.3225E-09  0.5417E+01
    -12.498  0.3185E-05  0.5417E+01
    -12.487  0.3221E-02  0.5417E+01
    -12.476  0.3525E+00  0.5421E+01
    -12.466  0.4614E+01  0.5471E+01
    -12.455  0.8227E+01  0.5560E+01
    -12.444  0.2092E+01  0.5583E+01
    -12.433  0.6894E-01  0.5583E+01
    -12.422  0.2886E-01  0.5584E+01
    -12.411  0.1295E+01  0.5598E+01
    -12.401  0.7589E+01  0.5680E+01
    -12.390  0.1110E+02  0.5800E+01
    -12.379  0.1926E+02  0.6010E+01
    -12.368  0.1236E+02  0.6144E+01
    -12.357  0.2041E+01  0.6166E+01
    -12.346  0.7571E-01  0.6167E+01
    -12.335  0.7857E-01  0.6168E+01
    -12.325  0.3080E+01  0.6201E+01
    -12.314  0.1546E+02  0.6369E+01
    -12.303  0.1103E+02  0.6488E+01
    -12.292  0.2834E+01  0.6519E+01
    -12.281  0.1856E+02  0.6721E+01
    -12.270  0.3161E+02  0.7064E+01
    -12.259  0.9099E+01  0.7162E+01
    -12.249  0.3986E+00  0.7167E+01
    -12.238  0.2238E-02  0.7167E+01
    -12.227  0.1407E-05  0.7167E+01
    -12.216  0.9192E-10  0.7167E+01
    -12.205  0.2506E-12  0.7167E+01
    -12.194  0.1252E-07  0.7167E+01
    -12.183  0.6269E-04  0.7167E+01
    -12.173  0.3256E-01  0.7167E+01
    -12.162  0.1874E+01  0.7187E+01
    -12.151  0.1342E+02  0.7333E+01
    -12.140  0.1380E+02  0.7483E+01
    -12.129  0.4888E+01  0.7536E+01
    -12.118  0.3731E+01  0.7576E+01
    -12.107  0.1580E+01  0.7593E+01
    -12.097  0.1042E+02  0.7707E+01
    -12.086  0.1592E+02  0.7879E+01
    -12.075  0.5629E+01  0.7940E+01
    -12.064  0.8389E+01  0.8031E+01
    -12.053  0.4629E+01  0.8082E+01
    -12.042  0.3623E+01  0.8121E+01
    -12.032  0.8558E+01  0.8214E+01
    -12.021  0.3177E+01  0.8248E+01
    -12.010  0.1567E+00  0.8250E+01
    -11.999  0.9031E-03  0.8250E+01
    -11.988  0.2539E-02  0.8250E+01
    -11.977  0.3038E+00  0.8253E+01
    -11.966  0.4361E+01  0.8301E+01
    -11.956  0.9439E+01  0.8403E+01
    -11.945  0.6443E+01  0.8473E+01
    -11.934  0.2328E+01  0.8498E+01
    -11.923  0.7108E+00  0.8506E+01
    -11.912  0.5525E+01  0.8566E+01
    -11.901  0.7714E+01  0.8650E+01
    -11.890  0.1528E+01  0.8666E+01
    -11.880  0.4436E-01  0.8667E+01
    -11.869  0.6631E+00  0.8674E+01
    -11.858  0.8986E+01  0.8771E+01
    -11.847  0.1656E+02  0.8951E+01
    -11.836  0.4353E+01  0.8998E+01
    -11.825  0.1486E+00  0.9000E+01
    -11.814  0.1674E-01  0.9000E+01
    -11.804  0.9331E+00  0.9010E+01
    -11.793  0.6699E+01  0.9083E+01
    -11.782  0.6844E+01  0.9157E+01
    -11.771  0.4527E+01  0.9206E+01
    -11.760  0.1600E+02  0.9380E+01
    -11.749  0.1017E+02  0.9490E+01
    -11.738  0.1598E+01  0.9508E+01
    -11.728  0.9275E+01  0.9608E+01
    -11.717  0.1644E+02  0.9787E+01
    -11.706  0.4157E+01  0.9832E+01
    -11.695  0.1361E+00  0.9833E+01
    -11.684  0.5085E-03  0.9833E+01
    -11.673  0.2001E-06  0.9833E+01
    -11.663  0.5558E-10  0.9833E+01
    -11.652  0.7131E-06  0.9833E+01
    -11.641  0.1087E-02  0.9833E+01
    -11.630  0.1769E+00  0.9835E+01
    -11.619  0.3369E+01  0.9872E+01
    -11.608  0.8553E+01  0.9965E+01
    -11.597  0.3107E+01  0.9998E+01
    -11.587  0.1816E+00  0.1000E+02
    -11.576  0.1378E+01  0.1002E+02
    -11.565  0.7515E+01  0.1010E+02
    -11.554  0.5804E+01  0.1016E+02
    -11.543  0.6211E+00  0.1017E+02
    -11.532  0.4192E-01  0.1017E+02
    -11.521  0.1915E+01  0.1019E+02
    -11.511  0.1351E+02  0.1033E+02
    -11.500  0.1337E+02  0.1048E+02
    -11.489  0.1855E+01  0.1050E+02
    -11.478  0.3199E-01  0.1050E+02
    -11.467  0.3296E-03  0.1050E+02
    -11.456  0.8850E-01  0.1050E+02
    -11.445  0.3297E+01  0.1054E+02
    -11.435  0.1570E+02  0.1071E+02
    -11.424  0.1062E+02  0.1082E+02
    -11.413  0.9890E+00  0.1083E+02
    -11.402  0.1115E-01  0.1083E+02
    -11.391  0.1370E-04  0.1083E+02
    -11.380  0.3176E-08  0.1083E+02
    -11.370  0.1191E-04  0.1083E+02
    -11.359  0.1009E-01  0.1083E+02
    -11.348  0.9303E+00  0.1084E+02
    -11.337  0.1036E+02  0.1096E+02
    -11.326  0.1587E+02  0.1113E+02
    -11.315  0.4256E+01  0.1117E+02
    -11.304  0.9859E+01  0.1128E+02
    -11.294  0.1620E+02  0.1146E+02
    -11.283  0.3826E+01  0.1150E+02
    -11.272  0.1164E+00  0.1150E+02
    -11.261  0.4030E-03  0.1150E+02
    -11.250  0.1466E-06  0.1150E+02
    -11.239  0.5388E-11  0.1150E+02
    -11.228  0.0000E+00  0.1150E+02
    -11.218  0.0000E+00  0.1150E+02
    -11.207  0.0000E+00  0.1150E+02
    -11.196  0.0000E+00  0.1150E+02
    -11.185  0.0000E+00  0.1150E+02
    -11.174  0.0000E+00  0.1150E+02
    -11.163  0.0000E+00  0.1150E+02
    -11.152  0.0000E+00  0.1150E+02
    -11.142  0.0000E+00  0.1150E+02
    -11.131  0.0000E+00  0.1150E+02
    -11.120  0.0000E+00  0.1150E+02
    -11.109  0.0000E+00  0.1150E+02
    -11.098  0.0000E+00  0.1150E+02
    -11.087  0.1654E-11  0.1150E+02
    -11.076  0.4969E-07  0.1150E+02
    -11.066  0.1505E-03  0.1150E+02
    -11.055  0.4782E-01  0.1150E+02
    -11.044  0.1720E+01  0.1152E+02
    -11.033  0.7926E+01  0.1161E+02
    -11.022  0.5191E+01  0.1166E+02
    -11.011  0.4671E+00  0.1167E+02
    -11.001  0.5080E-02  0.1167E+02
    -10.990  0.6014E-05  0.1167E+02
    -10.979  0.7314E-09  0.1167E+02
    -10.968  0.8525E-14  0.1167E+02
    -10.957  0.0000E+00  0.1167E+02
    -10.946  0.0000E+00  0.1167E+02
    -10.935  0.0000E+00  0.1167E+02
    -10.925  0.0000E+00  0.1167E+02
    -10.914  0.0000E+00  0.1167E+02
    -10.903  0.0000E+00  0.1167E+02
    -10.892  0.0000E+00  0.1167E+02
    -10.881  0.0000E+00  0.1167E+02
    -10.870  0.0000E+00  0.1167E+02
    -10.859  0.0000E+00  0.1167E+02
    -10.849  0.6828E-12  0.1167E+02
    -10.838  0.2447E-07  0.1167E+02
    -10.827  0.8828E-04  0.1167E+02
    -10.816  0.3327E-01  0.1167E+02
    -10.805  0.1408E+01  0.1168E+02
    -10.794  0.7559E+01  0.1176E+02
    -10.783  0.5744E+01  0.1183E+02
    -10.773  0.6043E+00  0.1183E+02
    -10.762  0.7760E-02  0.1183E+02
    -10.751  0.1091E-04  0.1183E+02
    -10.740  0.1582E-08  0.1183E+02
    -10.729  0.2387E-13  0.1183E+02
    -10.718  0.0000E+00  0.1183E+02
    -10.707  0.0000E+00  0.1183E+02
    -10.697  0.0000E+00  0.1183E+02
    -10.686  0.0000E+00  0.1183E+02
    -10.675  0.1432E-12  0.1183E+02
    -10.664  0.6978E-08  0.1183E+02
    -10.653  0.3405E-04  0.1183E+02
    -10.642  0.1724E-01  0.1183E+02
    -10.632  0.9690E+00  0.1184E+02
    -10.621  0.6781E+01  0.1192E+02
    -10.610  0.6658E+01  0.1199E+02
    -10.599  0.9157E+00  0.1200E+02
    -10.588  0.1564E-01  0.1200E+02
    -10.577  0.2961E-04  0.1200E+02
    -10.566  0.5810E-08  0.1200E+02
    -10.556  0.1142E-12  0.1200E+02
    -10.545  0.0000E+00  0.1200E+02
    -10.534  0.0000E+00  0.1200E+02
    -10.523  0.0000E+00  0.1200E+02
    -10.512  0.0000E+00  0.1200E+02
    -10.501  0.0000E+00  0.1200E+02
    -10.490  0.0000E+00  0.1200E+02
    -10.480  0.0000E+00  0.1200E+02
    -10.469  0.0000E+00  0.1200E+02
    -10.458  0.0000E+00  0.1200E+02
    -10.447  0.0000E+00  0.1200E+02
    -10.436  0.0000E+00  0.1200E+02
    -10.425  0.0000E+00  0.1200E+02
    -10.414  0.0000E+00  0.1200E+02
    -10.404  0.0000E+00  0.1200E+02
    -10.393  0.0000E+00  0.1200E+02
    -10.382  0.0000E+00  0.1200E+02
    -10.371  0.0000E+00  0.1200E+02
    -10.360  0.0000E+00  0.1200E+02
    -10.349  0.0000E+00  0.1200E+02
    -10.338  0.0000E+00  0.1200E+02
    -10.328  0.0000E+00  0.1200E+02
    -10.317  0.0000E+00  0.1200E+02
    -10.306  0.0000E+00  0.1200E+02
    -10.295  0.3487E-12  0.1200E+02
    -10.284  0.1427E-07  0.1200E+02
    -10.273  0.5867E-04  0.1200E+02
    -10.263  0.2513E-01  0.1200E+02
    -10.252  0.1203E+01  0.1201E+02
    -10.241  0.7242E+01  0.1209E+02
    -10.230  0.6150E+01  0.1216E+02
    -10.219  0.7270E+00  0.1217E+02
    -10.208  0.1057E-01  0.1217E+02
    -10.197  0.2392E-04  0.1217E+02
    -10.187  0.5664E-02  0.1217E+02
    -10.176  0.4993E+00  0.1217E+02
    -10.165  0.5333E+01  0.1223E+02
    -10.154  0.7997E+01  0.1232E+02
    -10.143  0.4826E+01  0.1237E+02
    -10.132  0.8600E+01  0.1246E+02
    -10.121  0.3285E+01  0.1250E+02
    -10.111  0.1678E+00  0.1250E+02
    -10.100  0.1002E-02  0.1250E+02
    -10.089  0.6382E-06  0.1250E+02
    -10.078  0.4135E-10  0.1250E+02
    -10.067  0.0000E+00  0.1250E+02
    -10.056  0.0000E+00  0.1250E+02
    -10.045  0.0000E+00  0.1250E+02
    -10.035  0.0000E+00  0.1250E+02
    -10.024  0.0000E+00  0.1250E+02
    -10.013  0.0000E+00  0.1250E+02
    -10.002  0.0000E+00  0.1250E+02
     -9.991  0.0000E+00  0.1250E+02
     -9.980  0.0000E+00  0.1250E+02
     -9.970  0.0000E+00  0.1250E+02
     -9.959  0.0000E+00  0.1250E+02
     -9.948  0.0000E+00  0.1250E+02
     -9.937  0.0000E+00  0.1250E+02
     -9.926  0.0000E+00  0.1250E+02
     -9.915  0.0000E+00  0.1250E+02
     -9.904  0.0000E+00  0.1250E+02
     -9.894  0.0000E+00  0.1250E+02
     -9.883  0.0000E+00  0.1250E+02
     -9.872  0.0000E+00  0.1250E+02
     -9.861  0.0000E+00  0.1250E+02
     -9.850  0.0000E+00  0.1250E+02
     -9.839  0.0000E+00  0.1250E+02
     -9.828  0.0000E+00  0.1250E+02
     -9.818  0.0000E+00  0.1250E+02
     -9.807  0.2046E-13  0.1250E+02
     -9.796  0.1606E-08  0.1250E+02
     -9.785  0.1293E-04  0.1250E+02
     -9.774  0.1070E-01  0.1250E+02
     -9.763  0.9643E+00  0.1251E+02
     -9.752  0.1052E+02  0.1262E+02
     -9.742  0.1577E+02  0.1280E+02
     -9.731  0.3360E+01  0.1283E+02
     -9.720  0.9162E-01  0.1283E+02
     -9.709  0.2825E-03  0.1283E+02
     -9.698  0.9132E-07  0.1283E+02
     -9.687  0.2974E-11  0.1283E+02
     -9.676  0.0000E+00  0.1283E+02
     -9.666  0.0000E+00  0.1283E+02
     -9.655  0.0000E+00  0.1283E+02
     -9.644  0.4621E-12  0.1283E+02
     -9.633  0.2050E-07  0.1283E+02
     -9.622  0.9127E-04  0.1283E+02
     -9.611  0.4226E-01  0.1283E+02
     -9.601  0.2179E+01  0.1286E+02
     -9.590  0.1407E+02  0.1301E+02
     -9.579  0.1278E+02  0.1315E+02
     -9.568  0.1621E+01  0.1317E+02
     -9.557  0.2619E-01  0.1317E+02
     -9.546  0.1438E+00  0.1317E+02
     -9.535  0.3046E+01  0.1320E+02
     -9.525  0.8549E+01  0.1329E+02
     -9.514  0.3433E+01  0.1333E+02
     -9.503  0.2088E+00  0.1333E+02
     -9.492  0.1604E+01  0.1335E+02
     -9.481  0.1320E+02  0.1349E+02
     -9.470  0.2182E+02  0.1373E+02
     -9.459  0.1912E+02  0.1394E+02
     -9.449  0.5618E+01  0.1400E+02
     -9.438  0.5227E+01  0.1406E+02
     -9.427  0.1686E+02  0.1424E+02
     -9.416  0.8313E+01  0.1433E+02
     -9.405  0.3974E+01  0.1437E+02
     -9.394  0.8552E+01  0.1447E+02
     -9.383  0.3035E+01  0.1450E+02
     -9.373  0.1426E+00  0.1450E+02
     -9.362  0.7799E-03  0.1450E+02
     -9.351  0.4539E-06  0.1450E+02
     -9.340  0.2683E-10  0.1450E+02
     -9.329  0.3921E-13  0.1450E+02
     -9.318  0.2818E-08  0.1450E+02
     -9.307  0.1996E-04  0.1450E+02
     -9.297  0.1457E-01  0.1450E+02
     -9.286  0.1163E+01  0.1451E+02
     -9.275  0.1132E+02  0.1464E+02
     -9.264  0.1524E+02  0.1480E+02
     -9.253  0.2905E+01  0.1483E+02
     -9.242  0.7035E-01  0.1483E+02
     -9.232  0.1916E-03  0.1483E+02
     -9.221  0.7032E-06  0.1483E+02
     -9.210  0.1218E-02  0.1483E+02
     -9.199  0.2435E+00  0.1484E+02
     -9.188  0.5745E+01  0.1490E+02
     -9.177  0.2008E+02  0.1512E+02
     -9.166  0.1595E+02  0.1529E+02
     -9.156  0.3857E+01  0.1533E+02
     -9.145  0.1861E+00  0.1533E+02
     -9.134  0.1149E-02  0.1533E+02
     -9.123  0.7678E-06  0.1533E+02
     -9.112  0.5230E-10  0.1533E+02
     -9.101  0.0000E+00  0.1533E+02
     -9.090  0.1065E-10  0.1533E+02
     -9.080  0.2523E-06  0.1533E+02
     -9.069  0.6045E-03  0.1533E+02
     -9.058  0.1528E+00  0.1533E+02
     -9.047  0.4418E+01  0.1538E+02
     -9.036  0.1659E+02  0.1556E+02
     -9.025  0.8977E+01  0.1566E+02
     -9.014  0.3791E+01  0.1570E+02
     -9.004  0.1552E+02  0.1587E+02
     -8.993  0.1090E+02  0.1599E+02
     -8.982  0.1060E+01  0.1600E+02
     -8.971  0.1255E-01  0.1600E+02
     -8.960  0.1629E-04  0.1600E+02
     -8.949  0.2195E-08  0.1600E+02
     -8.939  0.2164E-06  0.1600E+02
     -8.928  0.4515E-03  0.1600E+02
     -8.917  0.1002E+00  0.1600E+02
     -8.906  0.2672E+01  0.1603E+02
     -8.895  0.1262E+02  0.1617E+02
     -8.884  0.2047E+02  0.1639E+02
     -8.873  0.9507E+01  0.1649E+02
     -8.863  0.1173E+01  0.1651E+02
     -8.852  0.5655E+01  0.1657E+02
     -8.841  0.1475E+02  0.1673E+02
     -8.830  0.1761E+02  0.1692E+02
     -8.819  0.7065E+01  0.1699E+02
     -8.808  0.5305E+00  0.1700E+02
     -8.797  0.2128E-01  0.1700E+02
     -8.787  0.1222E+01  0.1701E+02
     -8.776  0.1154E+02  0.1714E+02
     -8.765  0.1508E+02  0.1730E+02
     -8.754  0.2792E+01  0.1733E+02
     -8.743  0.2177E+00  0.1733E+02
     -8.732  0.3133E+01  0.1737E+02
     -8.721  0.8554E+01  0.1746E+02
     -8.711  0.3342E+01  0.1750E+02
     -8.700  0.1740E+00  0.1750E+02
     -8.689  0.6435E-02  0.1750E+02
     -8.678  0.6295E+00  0.1751E+02
     -8.667  0.8785E+01  0.1760E+02
     -8.656  0.1664E+02  0.1778E+02
     -8.645  0.4498E+01  0.1783E+02
     -8.635  0.1584E+00  0.1783E+02
     -8.624  0.5756E-01  0.1783E+02
     -8.613  0.1356E+01  0.1785E+02
     -8.602  0.4248E+01  0.1789E+02
     -8.591  0.1940E+01  0.1792E+02
     -8.580  0.1621E+01  0.1793E+02
     -8.570  0.7688E+01  0.1802E+02
     -8.559  0.5563E+01  0.1808E+02
     -8.548  0.5575E+00  0.1808E+02
     -8.537  0.1890E+00  0.1809E+02
     -8.526  0.3606E+01  0.1812E+02
     -8.515  0.1621E+02  0.1830E+02
     -8.504  0.1612E+02  0.1848E+02
     -8.494  0.5542E+01  0.1854E+02
     -8.483  0.3753E+01  0.1858E+02
     -8.472  0.6490E+00  0.1858E+02
     -8.461  0.1445E-01  0.1858E+02
     -8.450  0.4356E-01  0.1858E+02
     -8.439  0.2889E+01  0.1862E+02
     -8.428  0.2426E+02  0.1888E+02
     -8.418  0.2908E+02  0.1919E+02
     -8.407  0.5042E+01  0.1925E+02
     -8.396  0.1134E+00  0.1925E+02
     -8.385  0.2939E-03  0.1925E+02
     -8.374  0.8148E-07  0.1925E+02
     -8.363  0.2319E-11  0.1925E+02
     -8.352  0.0000E+00  0.1925E+02
     -8.342  0.0000E+00  0.1925E+02
     -8.331  0.0000E+00  0.1925E+02
     -8.320  0.0000E+00  0.1925E+02
     -8.309  0.1347E-12  0.1925E+02
     -8.298  0.6629E-08  0.1925E+02
     -8.287  0.3274E-04  0.1925E+02
     -8.276  0.1678E-01  0.1925E+02
     -8.266  0.9538E+00  0.1926E+02
     -8.255  0.6747E+01  0.1933E+02
     -8.244  0.6693E+01  0.1941E+02
     -8.233  0.9304E+00  0.1942E+02
     -8.222  0.1608E-01  0.1942E+02
     -8.211  0.3080E-04  0.1942E+02
     -8.201  0.6117E-08  0.1942E+02
     -8.190  0.8303E-12  0.1942E+02
     -8.179  0.2887E-07  0.1942E+02
     -8.168  0.1184E-03  0.1942E+02
     -8.157  0.5057E-01  0.1942E+02
     -8.146  0.2414E+01  0.1944E+02
     -8.135  0.1450E+02  0.1960E+02
     -8.125  0.1228E+02  0.1973E+02
     -8.114  0.1448E+01  0.1975E+02
     -8.103  0.2100E-01  0.1975E+02
     -8.092  0.3351E-04  0.1975E+02
     -8.081  0.5524E-08  0.1975E+02
     -8.070  0.8866E-13  0.1975E+02
     -8.059  0.0000E+00  0.1975E+02
     -8.049  0.0000E+00  0.1975E+02
     -8.038  0.1023E-13  0.1975E+02
     -8.027  0.8181E-09  0.1975E+02
     -8.016  0.6558E-05  0.1975E+02
     -8.005  0.5404E-02  0.1975E+02
     -7.994  0.4852E+00  0.1976E+02
     -7.983  0.5271E+01  0.1981E+02
     -7.973  0.7877E+01  0.1990E+02
     -7.962  0.1672E+01  0.1992E+02
     -7.951  0.4542E-01  0.1992E+02
     -7.940  0.1395E-03  0.1992E+02
     -7.929  0.3295E-04  0.1992E+02
     -7.918  0.2074E-01  0.1992E+02
     -7.907  0.1437E+01  0.1993E+02
     -7.897  0.1225E+02  0.2007E+02
     -7.886  0.1453E+02  0.2022E+02
     -7.875  0.2430E+01  0.2025E+02
     -7.864  0.5117E-01  0.2025E+02
     -7.853  0.1204E-03  0.2025E+02
     -7.842  0.2953E-07  0.2025E+02
     -7.832  0.7297E-12  0.2025E+02
     -7.821  0.0000E+00  0.2025E+02
     -7.810  0.0000E+00  0.2025E+02
     -7.799  0.0000E+00  0.2025E+02
     -7.788  0.0000E+00  0.2025E+02
     -7.777  0.0000E+00  0.2025E+02
     -7.766  0.0000E+00  0.2025E+02
     -7.756  0.0000E+00  0.2025E+02
     -7.745  0.0000E+00  0.2025E+02
     -7.734  0.0000E+00  0.2025E+02
     -7.723  0.0000E+00  0.2025E+02
     -7.712  0.0000E+00  0.2025E+02
     -7.701  0.0000E+00  0.2025E+02
     -7.690  0.0000E+00  0.2025E+02
     -7.680  0.0000E+00  0.2025E+02
     -7.669  0.0000E+00  0.2025E+02
     -7.658  0.0000E+00  0.2025E+02
     -7.647  0.0000E+00  0.2025E+02
     -7.636  0.0000E+00  0.2025E+02
     -7.625  0.0000E+00  0.2025E+02
     -7.614  0.0000E+00  0.2025E+02
     -7.604  0.0000E+00  0.2025E+02
     -7.593  0.0000E+00  0.2025E+02
     -7.582  0.5115E-14  0.2025E+02
     -7.571  0.4700E-09  0.2025E+02
     -7.560  0.4977E-05  0.2025E+02
     -7.549  0.5393E-02  0.2025E+02
     -7.539  0.6308E+00  0.2026E+02
     -7.528  0.8792E+01  0.2035E+02
     -7.517  0.1664E+02  0.2053E+02
     -7.506  0.4492E+01  0.2058E+02
     -7.495  0.1577E+00  0.2058E+02
     -7.484  0.6343E-03  0.2058E+02
     -7.473  0.4838E-05  0.2058E+02
     -7.463  0.5070E-02  0.2058E+02
     -7.452  0.6067E+00  0.2059E+02
     -7.441  0.8652E+01  0.2068E+02
     -7.430  0.1756E+02  0.2087E+02
     -7.419  0.1466E+02  0.2103E+02
     -7.408  0.1620E+02  0.2121E+02
     -7.397  0.3641E+01  0.2125E+02
     -7.387  0.1062E+00  0.2125E+02
     -7.376  0.3514E-03  0.2125E+02
     -7.365  0.1221E-06  0.2125E+02
     -7.354  0.4283E-11  0.2125E+02
     -7.343  0.0000E+00  0.2125E+02
     -7.332  0.0000E+00  0.2125E+02
     -7.321  0.0000E+00  0.2125E+02
     -7.311  0.0000E+00  0.2125E+02
     -7.300  0.0000E+00  0.2125E+02
     -7.289  0.0000E+00  0.2125E+02
     -7.278  0.9377E-14  0.2125E+02
     -7.267  0.7897E-09  0.2125E+02
     -7.256  0.6381E-05  0.2125E+02
     -7.245  0.5300E-02  0.2125E+02
     -7.235  0.4794E+00  0.2126E+02
     -7.224  0.5246E+01  0.2131E+02
     -7.213  0.7893E+01  0.2140E+02
     -7.202  0.1687E+01  0.2142E+02
     -7.191  0.4617E-01  0.2142E+02
     -7.180  0.1429E-03  0.2142E+02
     -7.170  0.4636E-07  0.2142E+02
     -7.159  0.1517E-11  0.2142E+02
     -7.148  0.0000E+00  0.2142E+02
     -7.137  0.0000E+00  0.2142E+02
     -7.126  0.0000E+00  0.2142E+02
     -7.115  0.0000E+00  0.2142E+02
     -7.104  0.0000E+00  0.2142E+02
     -7.094  0.0000E+00  0.2142E+02
     -7.083  0.4262E-14  0.2142E+02
     -7.072  0.3916E-09  0.2142E+02
     -7.061  0.3704E-05  0.2142E+02
     -7.050  0.3591E-02  0.2142E+02
     -7.039  0.3771E+00  0.2142E+02
     -7.028  0.4749E+01  0.2147E+02
     -7.018  0.8164E+01  0.2156E+02
     -7.007  0.2000E+01  0.2158E+02
     -6.996  0.6328E-01  0.2158E+02
     -6.985  0.2281E-03  0.2158E+02
     -6.974  0.8653E-07  0.2158E+02
     -6.963  0.7164E-11  0.2158E+02
     -6.952  0.9747E-07  0.2158E+02
     -6.942  0.2493E-03  0.2158E+02
     -6.931  0.6716E-01  0.2158E+02
     -6.920  0.2064E+01  0.2161E+02
     -6.909  0.8224E+01  0.2170E+02
     -6.898  0.5556E+01  0.2176E+02
     -6.887  0.6985E+01  0.2183E+02