 vasp.5.4.4.18Apr17-6-g9f103f2a35 (build Jun 20 2017 18:00:50) complex          
  
 executed on             LinuxIFC date 2018.03.16  15:59:22
 running on   32 total cores
 distrk:  each k-point on   32 cores,    1 groups
 distr:  one band on NCORES_PER_BAND=   8 cores,    4 groups


--------------------------------------------------------------------------------------------------------


 INCAR:
 POTCAR:    PAW_PBE P 06Sep2000                   
 POTCAR:    PAW_PBE P 06Sep2000                   
   VRHFIN =P : s2p3                                                             
   LEXCH  = PE                                                                  
   EATOM  =   176.0430 eV,   12.9388 Ry                                         
                                                                                
   TITEL  = PAW_PBE P 06Sep2000                                                 
   LULTRA =        F    use ultrasoft PP ?                                      
   IUNSCR =        1    unscreen: 0-lin 1-nonlin 2-no                           
   RPACOR =    1.500    partial core radius                                     
   POMASS =   30.974; ZVAL   =    5.000    mass and valenz                      
   RCORE  =    1.900    outmost cutoff radius                                   
   RWIGS  =    2.330; RWIGS  =    1.233    wigner-seitz radius (au A)           
   ENMAX  =  255.040; ENMIN  =  191.280 eV                                      
   ICORE  =        2    local potential                                         
   LCOR   =        T    correct aug charges                                     
   LPAW   =        T    paw PP                                                  
   EAUG   =  342.924                                                            
   DEXC   =    0.000                                                            
   RMAX   =    1.935    core radius for proj-oper                               
   RAUG   =    1.300    factor for augmentation sphere                          
   RDEP   =    1.931    radius for radial grids                                 
   RDEPT  =    1.794    core radius for aug-charge                              
                                                                                
   Atomic configuration                                                         
    6 entries                                                                   
     n  l   j            E        occ.                                          
     1  0  0.50     -2084.0982   2.0000                                         
     2  0  0.50      -173.9859   2.0000                                         
     2  1  1.50      -124.4865   6.0000                                         
     3  0  0.50       -13.9692   2.0000                                         
     3  1  0.50        -5.5067   3.0000                                         
     3  2  1.50        -5.4423   0.0000                                         
   Description                                                                  
     l       E           TYP  RCUT    TYP  RCUT                                 
     0    -13.9691527     23  1.900                                             
     0    -11.7794650     23  1.900                                             
     1     -5.5066937     23  1.900                                             
     1     -0.2556953     23  1.900                                             
     2     -5.4423304     23  1.900                                             
  local pseudopotential read in
  partial core-charges read in
  partial kinetic energy density read in
  atomic valenz-charges read in
  non local Contribution for L=           0  read in
    real space projection operators read in
  non local Contribution for L=           0  read in
    real space projection operators read in
  non local Contribution for L=           1  read in
    real space projection operators read in
  non local Contribution for L=           1  read in
    real space projection operators read in
    PAW grid and wavefunctions read in
 
   number of l-projection  operators is LMAX  =           4
   number of lm-projection operators is LMMAX =           8
 
  PAW_PBE P 06Sep2000                   :
 energy of atom  1       EATOM= -176.0430
 kinetic energy error for atom=    0.0005 (will be added to EATOM!!)
 
 
 POSCAR: P12                                     
  positions in direct lattice
  No initial velocities read in
 exchange correlation table for  LEXCH =        8
   RHO(1)=    0.500       N(1)  =     2000
   RHO(2)=  100.500       N(2)  =     4000
 


--------------------------------------------------------------------------------------------------------


 ion  position               nearest neighbor table
   1  0.000  0.307  0.919-   2 2.23   2 2.23   3 2.26
   2  0.500  0.307  0.581-   1 2.23   1 2.23   4 2.26
   3  0.000  0.372  0.081-   4 2.23   4 2.23   1 2.26
   4  0.500  0.372  0.419-   3 2.23   3 2.23   2 2.26
   5  0.500  0.467  0.919-   6 2.23   6 2.23   7 2.26
   6  0.000  0.467  0.581-   5 2.23   5 2.23   8 2.26
   7  0.500  0.533  0.081-   8 2.23   8 2.23   5 2.26
   8  0.000  0.533  0.419-   7 2.23   7 2.23   6 2.26
   9  0.000  0.628  0.919-  10 2.23  10 2.23  11 2.26
  10  0.500  0.628  0.581-   9 2.23   9 2.23  12 2.26
  11  0.000  0.693  0.081-  12 2.23  12 2.23   9 2.26
  12  0.500  0.693  0.419-  11 2.23  11 2.23  10 2.26
 
  LATTYP: Found a simple orthorhombic cell.
 ALAT       =     3.3428860000
 B/A-ratio  =     1.3086988309
 C/A-ratio  =     9.7527732026
  
  Lattice vectors:
  
 A1 = (  -3.3428860000,   0.0000000000,   0.0000000000)
 A2 = (   0.0000000000,   0.0000000000,  -4.3748310000)
 A3 = (   0.0000000000, -32.6024090000,   0.0000000000)


Analysis of symmetry for initial positions (statically):
=====================================================================
 Subroutine PRICEL returns:
 Original cell was already a primitive cell.
 

 Routine SETGRP: Setting up the symmetry group for a 
 simple orthorhombic supercell.


 Subroutine GETGRP returns: Found  8 space group operations
 (whereof  4 operations were pure point group operations)
 out of a pool of  8 trial point group operations.


The static configuration has the point symmetry C_2h.
 The point group associated with its full space group is D_2h.


Analysis of symmetry for dynamics (positions and initial velocities):
=====================================================================
 Subroutine PRICEL returns:
 Original cell was already a primitive cell.
 

 Routine SETGRP: Setting up the symmetry group for a 
 simple orthorhombic supercell.


 Subroutine GETGRP returns: Found  8 space group operations
 (whereof  4 operations were pure point group operations)
 out of a pool of  8 trial point group operations.


The dynamic configuration has the point symmetry C_2h.
 The point group associated with its full space group is D_2h.


 Subroutine INISYM returns: Found  8 space group operations
 (whereof  4 operations are pure point group operations),
 and found     1 'primitive' translations

 
 
 KPOINTS: Automatic mesh                          

Automatic generation of k-mesh.
Space group operators:
 irot       det(A)        alpha          n_x          n_y          n_z        tau_x        tau_y        tau_z
    1     1.000000     0.000001     1.000000     0.000000     0.000000     0.000000     0.000000     0.000000
    2    -1.000000     0.000001     1.000000     0.000000     0.000000     0.000000     0.000000     0.000000
    3     1.000000   179.999999     1.000000     0.000000     0.000000     0.000000     0.000000     0.000000
    4    -1.000000   179.999999     1.000000     0.000000     0.000000     0.000000     0.000000     0.000000
    5     1.000000   179.999999     0.000000     1.000000     0.000000    -0.500000     0.000000    -0.500000
    6    -1.000000   179.999999     0.000000     1.000000     0.000000    -0.500000     0.000000    -0.500000
    7     1.000000   179.999999     0.000000     0.000000     1.000000    -0.500000     0.000000    -0.500000
    8    -1.000000   179.999999     0.000000     0.000000     1.000000    -0.500000     0.000000    -0.500000
 
 Subroutine IBZKPT returns following result:
 ===========================================
 
 Found     12 irreducible k-points:
 
 Following reciprocal coordinates:
            Coordinates               Weight
  0.000000  0.000000  0.000000      1.000000
  0.166667  0.000000  0.000000      2.000000
  0.333333  0.000000  0.000000      2.000000
  0.500000  0.000000  0.000000      1.000000
  0.000000  0.000000  0.250000      2.000000
  0.166667  0.000000  0.250000      4.000000
  0.333333  0.000000  0.250000      4.000000
  0.500000  0.000000  0.250000      2.000000
  0.000000  0.000000  0.500000      1.000000
  0.166667  0.000000  0.500000      2.000000
  0.333333  0.000000  0.500000      2.000000
  0.500000  0.000000  0.500000      1.000000
 
 Following cartesian coordinates:
            Coordinates               Weight
  0.000000  0.000000  0.000000      1.000000
  0.049857  0.000000  0.000000      2.000000
  0.099714  0.000000  0.000000      2.000000
  0.149571  0.000000  0.000000      1.000000
  0.000000  0.000000  0.057145      2.000000
  0.049857  0.000000  0.057145      4.000000
  0.099714  0.000000  0.057145      4.000000
  0.149571  0.000000  0.057145      2.000000
  0.000000  0.000000  0.114290      1.000000
  0.049857  0.000000  0.114290      2.000000
  0.099714  0.000000  0.114290      2.000000
  0.149571  0.000000  0.114290      1.000000
 


--------------------------------------------------------------------------------------------------------




 Dimension of arrays:
   k-points           NKPTS =     12   k-points in BZ     NKDIM =     12   number of bands    NBANDS=     40
   number of dos      NEDOS =   2000   number of ions     NIONS =     12
   non local maximal  LDIM  =      4   non local SUM 2l+1 LMDIM =      8
   total plane-waves  NPLWV = 145152
   max r-space proj   IRMAX =      1   max aug-charges    IRDMAX=   9463
   dimension x,y,z NGX =    24 NGY =  216 NGZ =   28
   dimension x,y,z NGXF=    48 NGYF=  432 NGZF=   56
   support grid    NGXF=    48 NGYF=  432 NGZF=   56
   ions per type =              12
   NGX,Y,Z   is equivalent  to a cutoff of  11.94, 11.01, 10.64 a.u.
   NGXF,Y,Z  is equivalent  to a cutoff of  23.87, 22.03, 21.28 a.u.

 SYSTEM =  Generic Input                           
 POSCAR =  P12                                     

 Startparameter for this run:
   NWRITE =      2    write-flag & timer
   PREC   = normal    normal or accurate (medium, high low for compatibility)
   ISTART =      0    job   : 0-new  1-cont  2-samecut
   ICHARG =      2    charge: 1-file 2-atom 10-const
   ISPIN  =      1    spin polarized calculation?
   LNONCOLLINEAR =      F non collinear calculations
   LSORBIT =      F    spin-orbit coupling
   INIWAV =      1    electr: 0-lowe 1-rand  2-diag
   LASPH  =      T    aspherical Exc in radial PAW
   METAGGA=      F    non-selfconsistent MetaGGA calc.

 Electronic Relaxation 1
   ENCUT  =  700.0 eV  51.45 Ry    7.17 a.u.   7.21 70.33  9.44*2*pi/ulx,y,z
   ENINI  =  700.0     initial cutoff
   ENAUG  =  342.9 eV  augmentation charge cutoff
   NELM   =    200;   NELMIN=  2; NELMDL=  0     # of ELM steps 
   EDIFF  = 0.1E-04   stopping-criterion for ELM
   LREAL  =      F    real-space projection
   NLSPLINE    = F    spline interpolate recip. space projectors
   LCOMPAT=      F    compatible to vasp.4.4
   GGA_COMPAT  = T    GGA compatible to vasp.4.4-vasp.4.6
   LMAXPAW     = -100 max onsite density
   LMAXMIX     =    2 max onsite mixed and CHGCAR
   VOSKOWN=      0    Vosko Wilk Nusair interpolation
   ROPT   =    0.00000
 Ionic relaxation
   EDIFFG = -.2E-01   stopping-criterion for IOM
   NSW    =      0    number of steps for IOM
   NBLOCK =      1;   KBLOCK =      1    inner block; outer block 
   IBRION =     -1    ionic relax: 0-MD 1-quasi-New 2-CG
   NFREE  =      1    steps in history (QN), initial steepest desc. (CG)
   ISIF   =      3    stress and relaxation
   IWAVPR =     11    prediction:  0-non 1-charg 2-wave 3-comb
   ISYM   =      2    0-nonsym 1-usesym 2-fastsym
   LCORR  =      T    Harris-Foulkes like correction to forces

   POTIM  = 0.5000    time-step for ionic-motion
   TEIN   =    0.0    initial temperature
   TEBEG  =    0.0;   TEEND  =   0.0 temperature during run
   SMASS  =  -3.00    Nose mass-parameter (am)
   estimated Nose-frequenzy (Omega)   =  0.10E-29 period in steps =****** mass=  -0.255E-27a.u.
   SCALEE = 1.0000    scale energy and forces
   NPACO  =    256;   APACO  = 16.0  distance and # of slots for P.C.
   PSTRESS=    0.0 pullay stress

  Mass of Ions in am
   POMASS =  30.97
  Ionic Valenz
   ZVAL   =   5.00
  Atomic Wigner-Seitz radii
   RWIGS  =  -1.00
  virtual crystal weights 
   VCA    =   1.00
   NELECT =      60.0000    total number of electrons
   NUPDOWN=      -1.0000    fix difference up-down

 DOS related values:
   EMIN   =  10.00;   EMAX   =-10.00  energy-range for DOS
   EFERMI =   0.00
   ISMEAR =     0;   SIGMA  =   0.01  broadening in eV -4-tet -1-fermi 0-gaus

 Electronic relaxation 2 (details)
   IALGO  =     38    algorithm
   LDIAG  =      T    sub-space diagonalisation (order eigenvalues)
   LSUBROT=      F    optimize rotation matrix (better conditioning)
   TURBO    =      0    0=normal 1=particle mesh
   IRESTART =      0    0=no restart 2=restart with 2 vectors
   NREBOOT  =      0    no. of reboots
   NMIN     =      0    reboot dimension
   EREF     =   0.00    reference energy to select bands
   IMIX   =      4    mixing-type and parameters
     AMIX     =   0.40;   BMIX     =  1.00
     AMIX_MAG =   1.60;   BMIX_MAG =  1.00
     AMIN     =   0.10
     WC   =   100.;   INIMIX=   1;  MIXPRE=   1;  MAXMIX= -45

 Intra band minimization:
   WEIMIN = 0.0000     energy-eigenvalue tresh-hold
   EBREAK =  0.63E-07  absolut break condition
   DEPER  =   0.30     relativ break condition  

   TIME   =   0.40     timestep for ELM

  volume/ion in A,a.u.               =      39.73       268.13
  Fermi-wavevector in a.u.,A,eV,Ry     =   0.820379  1.550291  9.157011  0.673021
  Thomas-Fermi vector in A             =   1.931350
 
 Write flags
   LWAVE        =      T    write WAVECAR
   LDOWNSAMPLE  =      F    k-point downsampling of WAVECAR
   LCHARG       =      T    write CHGCAR
   LVTOT        =      F    write LOCPOT, total local potential
   LVHAR        =      T    write LOCPOT, Hartree potential only
   LELF         =      F    write electronic localiz. function (ELF)
   LORBIT       =     11    0 simple, 1 ext, 2 COOP (PROOUT), +10 PAW based schemes


 Dipole corrections
   LMONO  =      F    monopole corrections only (constant potential shift)
   LDIPOL =      F    correct potential (dipole corrections)
   IDIPOL =      0    1-x, 2-y, 3-z, 4-all directions 
   EPSILON=  1.0000000 bulk dielectric constant

 Core level calculations are selected ICORELEVEL =  1
 Exchange correlation treatment:
   GGA     =    PE    GGA type
   LEXCH   =     8    internal setting for exchange type
   VOSKOWN=      0    Vosko Wilk Nusair interpolation
   LHFCALC =     F    Hartree Fock is set to
   LHFONE  =     F    Hartree Fock one center treatment
   AEXX    =    0.0000 exact exchange contribution

 Linear response parameters
   LEPSILON=     F    determine dielectric tensor
   LRPA    =     F    only Hartree local field effects (RPA)
   LNABLA  =     F    use nabla operator in PAW spheres
   LVEL    =     F    velocity operator in full k-point grid
   LINTERFAST=   F  fast interpolation
   KINTER  =     0    interpolate to denser k-point grid
   CSHIFT  =0.1000    complex shift for real part using Kramers Kronig
   OMEGAMAX=  -1.0    maximum frequency
   DEG_THRESHOLD= 0.2000000E-02 threshold for treating states as degnerate
   RTIME   =   -0.100 relaxation time in fs
  (WPLASMAI=    0.000 imaginary part of plasma frequency in eV, 0.658/RTIME)
   DFIELD  = 0.0000000 0.0000000 0.0000000 field for delta impulse in time
 
 Orbital magnetization related:
   ORBITALMAG=     F  switch on orbital magnetization
   LCHIMAG   =     F  perturbation theory with respect to B field
   DQ        =  0.001000  dq finite difference perturbation B field
   LLRAUG    =     F  two centre corrections for induced B field



--------------------------------------------------------------------------------------------------------


 Static calculation
 charge density and potential will be updated during run
 non-spin polarized calculation
 Variant of blocked Davidson
 Davidson routine will perform the subspace rotation
 perform sub-space diagonalisation
    after iterative eigenvector-optimisation
 modified Broyden-mixing scheme, WC =      100.0
 initial mixing is a Kerker type mixing with AMIX =  0.4000 and BMIX =      1.0000
 Hartree-type preconditioning will be used
 using additional bands           10
 reciprocal scheme for non local part
 use partial core corrections
 calculate Harris-corrections to forces 
   (improved forces if not selfconsistent)
 use gradient corrections 
 use of overlap-Matrix (Vanderbilt PP)
 Gauss-broadening in eV      SIGMA  =   0.01


--------------------------------------------------------------------------------------------------------


  energy-cutoff  :      700.00
  volume of cell :      476.80
      direct lattice vectors                 reciprocal lattice vectors
     3.342886000  0.000000000  0.000000000     0.299142717  0.000000000  0.000000000
     0.000000000 32.602409000  0.000000000     0.000000000  0.030672580  0.000000000
     0.000000000  0.000000000  4.374831000     0.000000000  0.000000000  0.228580258

  length of vectors
     3.342886000 32.602409000  4.374831000     0.299142717  0.030672580  0.228580258


 
 k-points in units of 2pi/SCALE and weight: Automatic mesh                          
   0.00000000  0.00000000  0.00000000       0.042
   0.04985712  0.00000000  0.00000000       0.083
   0.09971424  0.00000000  0.00000000       0.083
   0.14957136  0.00000000  0.00000000       0.042
   0.00000000  0.00000000  0.05714506       0.083
   0.04985712  0.00000000  0.05714506       0.167
   0.09971424  0.00000000  0.05714506       0.167
   0.14957136  0.00000000  0.05714506       0.083
   0.00000000  0.00000000  0.11429013       0.042
   0.04985712  0.00000000  0.11429013       0.083
   0.09971424  0.00000000  0.11429013       0.083
   0.14957136  0.00000000  0.11429013       0.042
 
 k-points in reciprocal lattice and weights: Automatic mesh                          
   0.00000000  0.00000000  0.00000000       0.042
   0.16666667  0.00000000  0.00000000       0.083
   0.33333333  0.00000000  0.00000000       0.083
   0.50000000  0.00000000  0.00000000       0.042
   0.00000000  0.00000000  0.25000000       0.083
   0.16666667  0.00000000  0.25000000       0.167
   0.33333333  0.00000000  0.25000000       0.167
   0.50000000  0.00000000  0.25000000       0.083
   0.00000000  0.00000000  0.50000000       0.042
   0.16666667  0.00000000  0.50000000       0.083
   0.33333333  0.00000000  0.50000000       0.083
   0.50000000  0.00000000  0.50000000       0.042
 
 position of ions in fractional coordinates (direct lattice) 
   0.00000000  0.30672600  0.91892400
   0.50000000  0.30672600  0.58107600
   0.00000000  0.37246700  0.08107600
   0.50000000  0.37246700  0.41892400
   0.50000000  0.46712900  0.91892400
   0.00000000  0.46712900  0.58107600
   0.50000000  0.53287100  0.08107600
   0.00000000  0.53287100  0.41892400
   0.00000000  0.62753300  0.91892400
   0.50000000  0.62753300  0.58107600
   0.00000000  0.69327400  0.08107600
   0.50000000  0.69327400  0.41892400
 
 position of ions in cartesian coordinates  (Angst):
   0.00000000 10.00000650  4.02013720
   1.67144300 10.00000650  2.54210930
   0.00000000 12.14332147  0.35469380
   1.67144300 12.14332147  1.83272170
   1.67144300 15.22953071  4.02013720
   0.00000000 15.22953071  2.54210930
   1.67144300 17.37287829  0.35469380
   0.00000000 17.37287829  1.83272170
   0.00000000 20.45908753  4.02013720
   1.67144300 20.45908753  2.54210930
   0.00000000 22.60240250  0.35469380
   1.67144300 22.60240250  1.83272170
 


--------------------------------------------------------------------------------------------------------


 k-point  1 :   0.0000 0.0000 0.0000  plane waves:   20077
 k-point  2 :   0.1667 0.0000 0.0000  plane waves:   20003
 k-point  3 :   0.3333 0.0000 0.0000  plane waves:   20102
 k-point  4 :   0.5000 0.0000 0.0000  plane waves:   20150
 k-point  5 :   0.0000 0.0000 0.2500  plane waves:   20055
 k-point  6 :   0.1667 0.0000 0.2500  plane waves:   20056
 k-point  7 :   0.3333 0.0000 0.2500  plane waves:   20082
 k-point  8 :   0.5000 0.0000 0.2500  plane waves:   20054
 k-point  9 :   0.0000 0.0000 0.5000  plane waves:   20034
 k-point 10 :   0.1667 0.0000 0.5000  plane waves:   20030
 k-point 11 :   0.3333 0.0000 0.5000  plane waves:   20016
 k-point 12 :   0.5000 0.0000 0.5000  plane waves:   20008

 maximum and minimum number of plane-waves per node :      2540     2457

 maximum number of plane-waves:     20150
 maximum index in each direction: 
   IXMAX=    7   IYMAX=   70   IZMAX=    9
   IXMIN=   -7   IYMIN=  -70   IZMIN=   -9


 parallel 3D FFT for wavefunctions:
    minimum data exchange during FFTs selected (reduces bandwidth)
 parallel 3D FFT for charge:
    minimum data exchange during FFTs selected (reduces bandwidth)


 total amount of memory used by VASP MPI-rank0    42584. kBytes
=======================================================================

   base      :      30000. kBytes
   nonl-proj :       2430. kBytes
   fftplans  :       2143. kBytes
   grid      :       3113. kBytes
   one-center:          6. kBytes
   wavefun   :       4892. kBytes
 
     INWAV:  cpu time    0.0000: real time    0.0000
 Broyden mixing: mesh for mixing (old mesh)
   NGX = 15   NGY =141   NGZ = 19
  (NGX  = 48   NGY  =432   NGZ  = 56)
  gives a total of  40185 points

 initial charge density was supplied:
 charge density of overlapping atoms calculated
 number of electron      60.0000000 magnetization 
 keeping initial charge density in first step


--------------------------------------------------------------------------------------------------------


 Maximum index for augmentation-charges          489 (set IRDMAX)


--------------------------------------------------------------------------------------------------------


 First call to EWALD:  gamma=   0.227
 Maximum number of real-space cells 6x 1x 5
 Maximum number of reciprocal cells 1x10x 2

    FEWALD:  cpu time    0.0017: real time    0.0017


--------------------------------------- Iteration      1(   1)  ---------------------------------------


    POTLOK:  cpu time    0.0559: real time    0.0583
    SETDIJ:  cpu time    0.0660: real time    0.0660
     EDDAV:  cpu time    0.9370: real time    0.9383
       DOS:  cpu time    0.0006: real time    0.0006
    --------------------------------------------
      LOOP:  cpu time    1.0594: real time    1.0632

 eigenvalue-minimisations  :   960
 total energy-change (2. order) : 0.4217336E+03  (-0.2548932E+04)
 number of electron      60.0000000 magnetization 
 augmentation part       60.0000000 magnetization 

 Free energy of the ion-electron system (eV)
  ---------------------------------------------------
  alpha Z        PSCENC =        30.28014394
  Ewald energy   TEWEN  =     14973.24208224
  -Hartree energ DENC   =    -16928.93300519
  -exchange      EXHF   =         0.00000000
  -V(xc)+E(xc)   XCENC  =        40.33410246
  PAW double counting   =      1677.12035881    -1579.18296132
  entropy T*S    EENTRO =        -0.00087001
  eigenvalues    EBANDS =        96.36361321
  atomic energy  EATOM  =      2112.51011868
  Solvation  Ediel_sol  =         0.00000000
  ---------------------------------------------------
  free energy    TOTEN  =       421.73358282 eV

  energy without entropy =      421.73445283  energy(sigma->0) =      421.73401782


--------------------------------------------------------------------------------------------------------




--------------------------------------- Iteration      1(   2)  ---------------------------------------


     EDDAV:  cpu time    1.1898: real time    1.1911
       DOS:  cpu time    0.0006: real time    0.0006
    --------------------------------------------
      LOOP:  cpu time    1.1904: real time    1.1917

 eigenvalue-minimisations  :  1336
 total energy-change (2. order) :-0.4369268E+03  (-0.4205885E+03)
 number of electron      60.0000000 magnetization 
 augmentation part       60.0000000 magnetization 

 Free energy of the ion-electron system (eV)
  ---------------------------------------------------
  alpha Z        PSCENC =        30.28014394
  Ewald energy   TEWEN  =     14973.24208224
  -Hartree energ DENC   =    -16928.93300519
  -exchange      EXHF   =         0.00000000
  -V(xc)+E(xc)   XCENC  =        40.33410246
  PAW double counting   =      1677.12035881    -1579.18296132
  entropy T*S    EENTRO =        -0.00020939
  eigenvalues    EBANDS =      -340.56387378
  atomic energy  EATOM  =      2112.51011868
  Solvation  Ediel_sol  =         0.00000000
  ---------------------------------------------------
  free energy    TOTEN  =       -15.19324356 eV

  energy without entropy =      -15.19303417  energy(sigma->0) =      -15.19313887


--------------------------------------------------------------------------------------------------------




--------------------------------------- Iteration      1(   3)  ---------------------------------------


     EDDAV:  cpu time    1.0872: real time    1.0883
       DOS:  cpu time    0.0004: real time    0.0004
    --------------------------------------------
      LOOP:  cpu time    1.0876: real time    1.0887

 eigenvalue-minimisations  :  1176
 total energy-change (2. order) :-0.4774313E+02  (-0.4703391E+02)
 number of electron      60.0000000 magnetization 
 augmentation part       60.0000000 magnetization 

 Free energy of the ion-electron system (eV)
  ---------------------------------------------------
  alpha Z        PSCENC =        30.28014394
  Ewald energy   TEWEN  =     14973.24208224
  -Hartree energ DENC   =    -16928.93300519
  -exchange      EXHF   =         0.00000000
  -V(xc)+E(xc)   XCENC  =        40.33410246
  PAW double counting   =      1677.12035881    -1579.18296132
  entropy T*S    EENTRO =        -0.00000000
  eigenvalues    EBANDS =      -388.30721764
  atomic energy  EATOM  =      2112.51011868
  Solvation  Ediel_sol  =         0.00000000
  ---------------------------------------------------
  free energy    TOTEN  =       -62.93637803 eV

  energy without entropy =      -62.93637803  energy(sigma->0) =      -62.93637803


--------------------------------------------------------------------------------------------------------




--------------------------------------- Iteration      1(   4)  ---------------------------------------


     EDDAV:  cpu time    1.2210: real time    1.2234
       DOS:  cpu time    0.0005: real time    0.0005
    --------------------------------------------
      LOOP:  cpu time    1.2215: real time    1.2239

 eigenvalue-minimisations  :  1392
 total energy-change (2. order) :-0.1828004E+01  (-0.1808292E+01)
 number of electron      60.0000000 magnetization 
 augmentation part       60.0000000 magnetization 

 Free energy of the ion-electron system (eV)
  ---------------------------------------------------
  alpha Z        PSCENC =        30.28014394
  Ewald energy   TEWEN  =     14973.24208224
  -Hartree energ DENC   =    -16928.93300519
  -exchange      EXHF   =         0.00000000
  -V(xc)+E(xc)   XCENC  =        40.33410246
  PAW double counting   =      1677.12035881    -1579.18296132
  entropy T*S    EENTRO =        -0.00000000
  eigenvalues    EBANDS =      -390.13522187
  atomic energy  EATOM  =      2112.51011868
  Solvation  Ediel_sol  =         0.00000000
  ---------------------------------------------------
  free energy    TOTEN  =       -64.76438226 eV

  energy without entropy =      -64.76438226  energy(sigma->0) =      -64.76438226


--------------------------------------------------------------------------------------------------------




--------------------------------------- Iteration      1(   5)  ---------------------------------------


     EDDAV:  cpu time    1.2996: real time    1.3059
       DOS:  cpu time    0.0004: real time    0.0004
    CHARGE:  cpu time    0.0602: real time    0.0603
    MIXING:  cpu time    0.0011: real time    0.0012
    --------------------------------------------
      LOOP:  cpu time    1.3614: real time    1.3677

 eigenvalue-minimisations  :  1480
 total energy-change (2. order) :-0.5115820E-01  (-0.5110054E-01)
 number of electron      60.0000031 magnetization 
 augmentation part       -6.5201014 magnetization 

 Broyden mixing:
  rms(total) = 0.17507E+01    rms(broyden)= 0.17507E+01
  rms(prec ) = 0.17562E+01
  weight for this iteration     100.00

 Free energy of the ion-electron system (eV)
  ---------------------------------------------------
  alpha Z        PSCENC =        30.28014394
  Ewald energy   TEWEN  =     14973.24208224
  -Hartree energ DENC   =    -16928.93300519
  -exchange      EXHF   =         0.00000000
  -V(xc)+E(xc)   XCENC  =        40.33410246
  PAW double counting   =      1677.12035881    -1579.18296132
  entropy T*S    EENTRO =        -0.00000000
  eigenvalues    EBANDS =      -390.18638007
  atomic energy  EATOM  =      2112.51011868
  Solvation  Ediel_sol  =         0.00000000
  ---------------------------------------------------
  free energy    TOTEN  =       -64.81554046 eV

  energy without entropy =      -64.81554046  energy(sigma->0) =      -64.81554046


--------------------------------------------------------------------------------------------------------




--------------------------------------- Iteration      1(   6)  ---------------------------------------


    POTLOK:  cpu time    0.0320: real time    0.0322
    SETDIJ:  cpu time    0.0663: real time    0.0663
     EDDAV:  cpu time    1.1241: real time    1.1269
       DOS:  cpu time    0.0004: real time    0.0004
    CHARGE:  cpu time    0.0586: real time    0.0586
    MIXING:  cpu time    0.0010: real time    0.0010
    --------------------------------------------
      LOOP:  cpu time    1.2823: real time    1.2854

 eigenvalue-minimisations  :  1224
 total energy-change (2. order) : 0.3246312E+00  (-0.1978833E-01)
 number of electron      60.0000031 magnetization 
 augmentation part       -6.4821607 magnetization 

 Broyden mixing:
  rms(total) = 0.10378E+01    rms(broyden)= 0.10378E+01
  rms(prec ) = 0.10410E+01
  weight for this iteration     100.00

 eigenvalues of (default mixing * dielectric matrix)
  average eigenvalue GAMMA=   2.4476
  2.4476

 Free energy of the ion-electron system (eV)
  ---------------------------------------------------
  alpha Z        PSCENC =        30.28014394
  Ewald energy   TEWEN  =     14973.24208224
  -Hartree energ DENC   =    -16941.13411710
  -exchange      EXHF   =         0.00000000
  -V(xc)+E(xc)   XCENC  =        41.37703955
  PAW double counting   =      3126.58971673    -3029.11450068
  entropy T*S    EENTRO =        -0.00000000
  eigenvalues    EBANDS =      -378.24139266
  atomic energy  EATOM  =      2112.51011868
  Solvation  Ediel_sol  =         0.00000000
  ---------------------------------------------------
  free energy    TOTEN  =       -64.49090930 eV

  energy without entropy =      -64.49090930  energy(sigma->0) =      -64.49090930


--------------------------------------------------------------------------------------------------------




--------------------------------------- Iteration      1(   7)  ---------------------------------------


    POTLOK:  cpu time    0.0321: real time    0.0323
    SETDIJ:  cpu time    0.0663: real time    0.0663
     EDDAV:  cpu time    1.1664: real time    1.1676
       DOS:  cpu time    0.0005: real time    0.0005
    CHARGE:  cpu time    0.0606: real time    0.0606
    MIXING:  cpu time    0.0010: real time    0.0010
    --------------------------------------------
      LOOP:  cpu time    1.3269: real time    1.3283

 eigenvalue-minimisations  :  1184
 total energy-change (2. order) : 0.1493185E+00  (-0.3617074E-01)
 number of electron      60.0000031 magnetization 
 augmentation part       -6.4356983 magnetization 

 Broyden mixing:
  rms(total) = 0.43743E-01    rms(broyden)= 0.43743E-01
  rms(prec ) = 0.45068E-01
  weight for this iteration     100.00

 eigenvalues of (default mixing * dielectric matrix)
  average eigenvalue GAMMA=   2.0538
  1.5803  2.5272

 Free energy of the ion-electron system (eV)
  ---------------------------------------------------
  alpha Z        PSCENC =        30.28014394
  Ewald energy   TEWEN  =     14973.24208224
  -Hartree energ DENC   =    -16959.83411497
  -exchange      EXHF   =         0.00000000
  -V(xc)+E(xc)   XCENC  =        43.06836108
  PAW double counting   =      6219.95603178    -6123.04628217
  entropy T*S    EENTRO =        -0.00000024
  eigenvalues    EBANDS =      -360.51793116
  atomic energy  EATOM  =      2112.51011868
  Solvation  Ediel_sol  =         0.00000000
  ---------------------------------------------------
  free energy    TOTEN  =       -64.34159083 eV

  energy without entropy =      -64.34159059  energy(sigma->0) =      -64.34159071


--------------------------------------------------------------------------------------------------------




--------------------------------------- Iteration      1(   8)  ---------------------------------------


    POTLOK:  cpu time    0.0309: real time    0.0325
    SETDIJ:  cpu time    0.0663: real time    0.0663
     EDDAV:  cpu time    1.1209: real time    1.1220
       DOS:  cpu time    0.0005: real time    0.0005
    CHARGE:  cpu time    0.0589: real time    0.0589
    MIXING:  cpu time    0.0010: real time    0.0010
    --------------------------------------------
      LOOP:  cpu time    1.2786: real time    1.2812

 eigenvalue-minimisations  :  1240
 total energy-change (2. order) : 0.2707304E-03  (-0.3194649E-02)
 number of electron      60.0000031 magnetization 
 augmentation part       -6.4459995 magnetization 

 Broyden mixing:
  rms(total) = 0.23071E-01    rms(broyden)= 0.23071E-01
  rms(prec ) = 0.23767E-01
  weight for this iteration     100.00

 eigenvalues of (default mixing * dielectric matrix)
  average eigenvalue GAMMA=   1.5950
  2.5256  1.0150  1.2445

 Free energy of the ion-electron system (eV)
  ---------------------------------------------------
  alpha Z        PSCENC =        30.28014394
  Ewald energy   TEWEN  =     14973.24208224
  -Hartree energ DENC   =    -16961.04155652
  -exchange      EXHF   =         0.00000000
  -V(xc)+E(xc)   XCENC  =        43.09943802
  PAW double counting   =      6325.29239653    -6228.31034326
  entropy T*S    EENTRO =        -0.00000006
  eigenvalues    EBANDS =      -359.41359967
  atomic energy  EATOM  =      2112.51011868
  Solvation  Ediel_sol  =         0.00000000
  ---------------------------------------------------
  free energy    TOTEN  =       -64.34132010 eV

  energy without entropy =      -64.34132004  energy(sigma->0) =      -64.34132007


--------------------------------------------------------------------------------------------------------




--------------------------------------- Iteration      1(   9)  ---------------------------------------


    POTLOK:  cpu time    0.0319: real time    0.0321
    SETDIJ:  cpu time    0.0662: real time    0.0662
     EDDAV:  cpu time    1.2416: real time    1.2427
       DOS:  cpu time    0.0005: real time    0.0005
    CHARGE:  cpu time    0.0583: real time    0.0583
    MIXING:  cpu time    0.0011: real time    0.0011
    --------------------------------------------
      LOOP:  cpu time    1.3996: real time    1.4010

 eigenvalue-minimisations  :  1432
 total energy-change (2. order) : 0.3632266E-04  (-0.1779780E-03)
 number of electron      60.0000031 magnetization 
 augmentation part       -6.4463211 magnetization 

 Broyden mixing:
  rms(total) = 0.19514E-01    rms(broyden)= 0.19514E-01
  rms(prec ) = 0.20105E-01
  weight for this iteration     100.00

 eigenvalues of (default mixing * dielectric matrix)
  average eigenvalue GAMMA=   1.8403
  2.2895  2.2895  1.3912  1.3912

 Free energy of the ion-electron system (eV)
  ---------------------------------------------------
  alpha Z        PSCENC =        30.28014394
  Ewald energy   TEWEN  =     14973.24208224
  -Hartree energ DENC   =    -16961.83709201
  -exchange      EXHF   =         0.00000000
  -V(xc)+E(xc)   XCENC  =        43.10853085
  PAW double counting   =      6325.42646955    -6228.43723843
  entropy T*S    EENTRO =        -0.00000006
  eigenvalues    EBANDS =      -358.63429854
  atomic energy  EATOM  =      2112.51011868
  Solvation  Ediel_sol  =         0.00000000
  ---------------------------------------------------
  free energy    TOTEN  =       -64.34128378 eV

  energy without entropy =      -64.34128372  energy(sigma->0) =      -64.34128375


--------------------------------------------------------------------------------------------------------




--------------------------------------- Iteration      1(  10)  ---------------------------------------


    POTLOK:  cpu time    0.0333: real time    0.0335
    SETDIJ:  cpu time    0.0662: real time    0.0663
     EDDAV:  cpu time    1.0932: real time    1.0942
       DOS:  cpu time    0.0005: real time    0.0005
    CHARGE:  cpu time    0.0600: real time    0.0600
    MIXING:  cpu time    0.0015: real time    0.0015
    --------------------------------------------
      LOOP:  cpu time    1.2548: real time    1.2560

 eigenvalue-minimisations  :  1200
 total energy-change (2. order) : 0.2591698E-03  (-0.3856824E-04)
 number of electron      60.0000031 magnetization 
 augmentation part       -6.4475947 magnetization 

 Broyden mixing:
  rms(total) = 0.14730E-01    rms(broyden)= 0.14730E-01
  rms(prec ) = 0.15205E-01
  weight for this iteration     100.00

 eigenvalues of (default mixing * dielectric matrix)
  average eigenvalue GAMMA=   1.7685
  2.5386  2.5386  1.4659  1.1496  1.1496

 Free energy of the ion-electron system (eV)
  ---------------------------------------------------
  alpha Z        PSCENC =        30.28014394
  Ewald energy   TEWEN  =     14973.24208224
  -Hartree energ DENC   =    -16962.85909219
  -exchange      EXHF   =         0.00000000
  -V(xc)+E(xc)   XCENC  =        43.09239598
  PAW double counting   =      6250.62121420    -6153.60751836
  entropy T*S    EENTRO =        -0.00000004
  eigenvalues    EBANDS =      -357.62036908
  atomic energy  EATOM  =      2112.51011868
  Solvation  Ediel_sol  =         0.00000000
  ---------------------------------------------------
  free energy    TOTEN  =       -64.34102461 eV

  energy without entropy =      -64.34102457  energy(sigma->0) =      -64.34102459


--------------------------------------------------------------------------------------------------------




--------------------------------------- Iteration      1(  11)  ---------------------------------------


    POTLOK:  cpu time    0.0332: real time    0.0334
    SETDIJ:  cpu time    0.0663: real time    0.0663
     EDDAV:  cpu time    1.1381: real time    1.1391
       DOS:  cpu time    0.0005: real time    0.0005
    CHARGE:  cpu time    0.0595: real time    0.0598
    MIXING:  cpu time    0.0011: real time    0.0011
    --------------------------------------------
      LOOP:  cpu time    1.2988: real time    1.3001

 eigenvalue-minimisations  :  1240
 total energy-change (2. order) : 0.2708223E-03  (-0.4001056E-04)
 number of electron      60.0000031 magnetization 
 augmentation part       -6.4471719 magnetization 

 Broyden mixing:
  rms(total) = 0.48334E-02    rms(broyden)= 0.48334E-02
  rms(prec ) = 0.53543E-02
  weight for this iteration     100.00

 eigenvalues of (default mixing * dielectric matrix)
  average eigenvalue GAMMA=   1.6736
  2.5683  2.5683  1.3225  1.1705  1.2061  1.2061

 Free energy of the ion-electron system (eV)
  ---------------------------------------------------
  alpha Z        PSCENC =        30.28014394
  Ewald energy   TEWEN  =     14973.24208224
  -Hartree energ DENC   =    -16964.77003665
  -exchange      EXHF   =         0.00000000
  -V(xc)+E(xc)   XCENC  =        43.12405029
  PAW double counting   =      6269.69961122    -6172.68050730
  entropy T*S    EENTRO =        -0.00000005
  eigenvalues    EBANDS =      -355.74621616
  atomic energy  EATOM  =      2112.51011868
  Solvation  Ediel_sol  =         0.00000000
  ---------------------------------------------------
  free energy    TOTEN  =       -64.34075379 eV

  energy without entropy =      -64.34075374  energy(sigma->0) =      -64.34075376


--------------------------------------------------------------------------------------------------------




--------------------------------------- Iteration      1(  12)  ---------------------------------------


    POTLOK:  cpu time    0.0312: real time    0.0328
    SETDIJ:  cpu time    0.0663: real time    0.0663
     EDDAV:  cpu time    1.1205: real time    1.1215
       DOS:  cpu time    0.0005: real time    0.0005
    CHARGE:  cpu time    0.0602: real time    0.0602
    MIXING:  cpu time    0.0012: real time    0.0012
    --------------------------------------------
      LOOP:  cpu time    1.2798: real time    1.2824

 eigenvalue-minimisations  :  1216
 total energy-change (2. order) :-0.7813116E-04  (-0.5818349E-05)
 number of electron      60.0000031 magnetization 
 augmentation part       -6.4470971 magnetization 

 Broyden mixing:
  rms(total) = 0.15719E-02    rms(broyden)= 0.15719E-02
  rms(prec ) = 0.23791E-02
  weight for this iteration     100.00

 eigenvalues of (default mixing * dielectric matrix)
  average eigenvalue GAMMA=   1.7899
  2.9998  2.5812  1.7354  1.7354  0.9781  1.2497  1.2497

 Free energy of the ion-electron system (eV)
  ---------------------------------------------------
  alpha Z        PSCENC =        30.28014394
  Ewald energy   TEWEN  =     14973.24208224
  -Hartree energ DENC   =    -16965.49783894
  -exchange      EXHF   =         0.00000000
  -V(xc)+E(xc)   XCENC  =        43.12981365
  PAW double counting   =      6275.95750440    -6178.93861580
  entropy T*S    EENTRO =        -0.00000005
  eigenvalues    EBANDS =      -355.02404004
  atomic energy  EATOM  =      2112.51011868
  Solvation  Ediel_sol  =         0.00000000
  ---------------------------------------------------
  free energy    TOTEN  =       -64.34083192 eV

  energy without entropy =      -64.34083187  energy(sigma->0) =      -64.34083189


--------------------------------------------------------------------------------------------------------




--------------------------------------- Iteration      1(  13)  ---------------------------------------


    POTLOK:  cpu time    0.0324: real time    0.0343
    SETDIJ:  cpu time    0.0662: real time    0.0663
     EDDAV:  cpu time    1.0419: real time    1.0428
       DOS:  cpu time    0.0005: real time    0.0005
    CHARGE:  cpu time    0.0739: real time    0.0740
    MIXING:  cpu time    0.0014: real time    0.0014
    --------------------------------------------
      LOOP:  cpu time    1.2163: real time    1.2191

 eigenvalue-minimisations  :  1096
 total energy-change (2. order) :-0.2117476E-03  (-0.8218495E-05)
 number of electron      60.0000031 magnetization 
 augmentation part       -6.4468473 magnetization 

 Broyden mixing:
  rms(total) = 0.34202E-02    rms(broyden)= 0.34202E-02
  rms(prec ) = 0.35504E-02
  weight for this iteration     100.00

 eigenvalues of (default mixing * dielectric matrix)
  average eigenvalue GAMMA=   1.8061
  3.6326  2.4129  2.4129  1.6269  1.1500  1.1500  1.0315  1.0315

 Free energy of the ion-electron system (eV)
  ---------------------------------------------------
  alpha Z        PSCENC =        30.28014394
  Ewald energy   TEWEN  =     14973.24208224
  -Hartree energ DENC   =    -16966.82978557
  -exchange      EXHF   =         0.00000000
  -V(xc)+E(xc)   XCENC  =        43.14044530
  PAW double counting   =      6283.71284429    -6186.69362038
  entropy T*S    EENTRO =        -0.00000006
  eigenvalues    EBANDS =      -353.70327210
  atomic energy  EATOM  =      2112.51011868
  Solvation  Ediel_sol  =         0.00000000
  ---------------------------------------------------
  free energy    TOTEN  =       -64.34104366 eV

  energy without entropy =      -64.34104361  energy(sigma->0) =      -64.34104364


--------------------------------------------------------------------------------------------------------




--------------------------------------- Iteration      1(  14)  ---------------------------------------


    POTLOK:  cpu time    0.0344: real time    0.0358
    SETDIJ:  cpu time    0.0663: real time    0.0663
     EDDAV:  cpu time    1.0284: real time    1.0295
       DOS:  cpu time    0.0005: real time    0.0005
    CHARGE:  cpu time    0.0627: real time    0.0627
    MIXING:  cpu time    0.0013: real time    0.0013
    --------------------------------------------
      LOOP:  cpu time    1.1936: real time    1.1962

 eigenvalue-minimisations  :  1032
 total energy-change (2. order) :-0.1613406E-03  (-0.2576969E-05)
 number of electron      60.0000031 magnetization 
 augmentation part       -6.4467310 magnetization 

 Broyden mixing:
  rms(total) = 0.33064E-02    rms(broyden)= 0.33064E-02
  rms(prec ) = 0.33681E-02
  weight for this iteration     100.00

 eigenvalues of (default mixing * dielectric matrix)
  average eigenvalue GAMMA=   1.6193
  3.5325  2.4103  2.4103  1.6269  1.1704  1.1704  1.0791  0.9777  0.1963

 Free energy of the ion-electron system (eV)
  ---------------------------------------------------
  alpha Z        PSCENC =        30.28014394
  Ewald energy   TEWEN  =     14973.24208224
  -Hartree energ DENC   =    -16967.35615746
  -exchange      EXHF   =         0.00000000
  -V(xc)+E(xc)   XCENC  =        43.14244304
  PAW double counting   =      6281.92728311    -6184.90827600
  entropy T*S    EENTRO =        -0.00000006
  eigenvalues    EBANDS =      -353.17884249
  atomic energy  EATOM  =      2112.51011868
  Solvation  Ediel_sol  =         0.00000000
  ---------------------------------------------------
  free energy    TOTEN  =       -64.34120501 eV

  energy without entropy =      -64.34120494  energy(sigma->0) =      -64.34120497


--------------------------------------------------------------------------------------------------------




--------------------------------------- Iteration      1(  15)  ---------------------------------------


    POTLOK:  cpu time    0.0312: real time    0.0331
    SETDIJ:  cpu time    0.0670: real time    0.0670
     EDDAV:  cpu time    0.8195: real time    0.8204
       DOS:  cpu time    0.0005: real time    0.0005
    CHARGE:  cpu time    0.0597: real time    0.0597
    MIXING:  cpu time    0.0014: real time    0.0014
    --------------------------------------------
      LOOP:  cpu time    0.9793: real time    0.9821

 eigenvalue-minimisations  :   768
 total energy-change (2. order) :-0.2249580E-04  (-0.1974639E-06)
 number of electron      60.0000031 magnetization 
 augmentation part       -6.4467450 magnetization 

 Broyden mixing:
  rms(total) = 0.27382E-02    rms(broyden)= 0.27382E-02
  rms(prec ) = 0.28085E-02
  weight for this iteration     100.00

 eigenvalues of (default mixing * dielectric matrix)
  average eigenvalue GAMMA=   1.9152
  4.3457  2.6010  2.3385  2.0015  2.0015  1.4247  1.4247  1.0846  0.9648  0.9648

 Free energy of the ion-electron system (eV)
  ---------------------------------------------------
  alpha Z        PSCENC =        30.28014394
  Ewald energy   TEWEN  =     14973.24208224
  -Hartree energ DENC   =    -16967.36378808
  -exchange      EXHF   =         0.00000000
  -V(xc)+E(xc)   XCENC  =        43.14211890
  PAW double counting   =      6280.93651397    -6183.91752454
  entropy T*S    EENTRO =        -0.00000006
  eigenvalues    EBANDS =      -353.17089254
  atomic energy  EATOM  =      2112.51011868
  Solvation  Ediel_sol  =         0.00000000
  ---------------------------------------------------
  free energy    TOTEN  =       -64.34122750 eV

  energy without entropy =      -64.34122744  energy(sigma->0) =      -64.34122747


--------------------------------------------------------------------------------------------------------




--------------------------------------- Iteration      1(  16)  ---------------------------------------


    POTLOK:  cpu time    0.0326: real time    0.0342
    SETDIJ:  cpu time    0.0663: real time    0.0663
     EDDAV:  cpu time    0.9467: real time    0.9477
       DOS:  cpu time    0.0005: real time    0.0005
    CHARGE:  cpu time    0.0621: real time    0.0621
    MIXING:  cpu time    0.0016: real time    0.0016
    --------------------------------------------
      LOOP:  cpu time    1.1098: real time    1.1123

 eigenvalue-minimisations  :   952
 total energy-change (2. order) :-0.2596068E-03  (-0.2011918E-05)
 number of electron      60.0000031 magnetization 
 augmentation part       -6.4466790 magnetization 

 Broyden mixing:
  rms(total) = 0.16975E-02    rms(broyden)= 0.16975E-02
  rms(prec ) = 0.17149E-02
  weight for this iteration     100.00

 eigenvalues of (default mixing * dielectric matrix)
  average eigenvalue GAMMA=   2.0007
  6.5498  2.7740  2.2653  2.0323  2.0323  1.3300  1.3300  1.0886  0.8630  0.8715
  0.8715

 Free energy of the ion-electron system (eV)
  ---------------------------------------------------
  alpha Z        PSCENC =        30.28014394
  Ewald energy   TEWEN  =     14973.24208224
  -Hartree energ DENC   =    -16967.97656320
  -exchange      EXHF   =         0.00000000
  -V(xc)+E(xc)   XCENC  =        43.14211894
  PAW double counting   =      6273.32704458    -6176.30772696
  entropy T*S    EENTRO =        -0.00000007
  eigenvalues    EBANDS =      -352.55870527
  atomic energy  EATOM  =      2112.51011868
  Solvation  Ediel_sol  =         0.00000000
  ---------------------------------------------------
  free energy    TOTEN  =       -64.34148711 eV

  energy without entropy =      -64.34148704  energy(sigma->0) =      -64.34148708


--------------------------------------------------------------------------------------------------------




--------------------------------------- Iteration      1(  17)  ---------------------------------------


    POTLOK:  cpu time    0.0325: real time    0.0340
    SETDIJ:  cpu time    0.0666: real time    0.0666
     EDDAV:  cpu time    0.8737: real time    0.8746
       DOS:  cpu time    0.0005: real time    0.0005
    CHARGE:  cpu time    0.0626: real time    0.0626
    MIXING:  cpu time    0.0015: real time    0.0015
    --------------------------------------------
      LOOP:  cpu time    1.0374: real time    1.0398

 eigenvalue-minimisations  :   832
 total energy-change (2. order) :-0.3356561E-04  (-0.4698401E-06)
 number of electron      60.0000031 magnetization 
 augmentation part       -6.4466929 magnetization 

 Broyden mixing:
  rms(total) = 0.18955E-02    rms(broyden)= 0.18955E-02
  rms(prec ) = 0.19016E-02
  weight for this iteration     100.00

 eigenvalues of (default mixing * dielectric matrix)
  average eigenvalue GAMMA=   1.8372
  6.5446  2.7564  2.1976  2.0377  2.0377  1.3215  1.3215  1.1065  0.8455  0.8469
  0.8469  0.1838

 Free energy of the ion-electron system (eV)
  ---------------------------------------------------
  alpha Z        PSCENC =        30.28014394
  Ewald energy   TEWEN  =     14973.24208224
  -Hartree energ DENC   =    -16968.17042352
  -exchange      EXHF   =         0.00000000
  -V(xc)+E(xc)   XCENC  =        43.14214058
  PAW double counting   =      6272.45856903    -6175.43900725
  entropy T*S    EENTRO =        -0.00000007
  eigenvalues    EBANDS =      -352.36514431
  atomic energy  EATOM  =      2112.51011868
  Solvation  Ediel_sol  =         0.00000000
  ---------------------------------------------------
  free energy    TOTEN  =       -64.34152067 eV

  energy without entropy =      -64.34152061  energy(sigma->0) =      -64.34152064


--------------------------------------------------------------------------------------------------------




--------------------------------------- Iteration      1(  18)  ---------------------------------------


    POTLOK:  cpu time    0.0316: real time    0.0332
    SETDIJ:  cpu time    0.0667: real time    0.0667
     EDDAV:  cpu time    0.8182: real time    0.8192
       DOS:  cpu time    0.0005: real time    0.0005
    --------------------------------------------
      LOOP:  cpu time    1.0014: real time    1.0039

 eigenvalue-minimisations  :   728
 total energy-change (2. order) :-0.5583020E-06  (-0.4147742E-07)
 number of electron      60.0000031 magnetization 
 augmentation part       -6.4466929 magnetization 

 Free energy of the ion-electron system (eV)
  ---------------------------------------------------
  alpha Z        PSCENC =        30.28014394
  Ewald energy   TEWEN  =     14973.24208224
  -Hartree energ DENC   =    -16968.17147907
  -exchange      EXHF   =         0.00000000
  -V(xc)+E(xc)   XCENC  =        43.14216559
  PAW double counting   =      6272.61131235    -6175.59173716
  entropy T*S    EENTRO =        -0.00000007
  eigenvalues    EBANDS =      -352.36412773
  atomic energy  EATOM  =      2112.51011868
  Solvation  Ediel_sol  =         0.00000000
  ---------------------------------------------------
  free energy    TOTEN  =       -64.34152123 eV

  energy without entropy =      -64.34152117  energy(sigma->0) =      -64.34152120


--------------------------------------------------------------------------------------------------------




 the core state eigenenergies are
   1-  1s  -2078.3885  2s   -168.4206  2p   -118.9061
   2-  1s  -2078.3885  2s   -168.4206  2p   -118.9061
   3-  1s  -2078.4477  2s   -168.4737  2p   -118.9598
   4-  1s  -2078.4477  2s   -168.4737  2p   -118.9598
   5-  1s  -2078.4771  2s   -168.5042  2p   -118.9902
   6-  1s  -2078.4771  2s   -168.5042  2p   -118.9902
   7-  1s  -2078.4771  2s   -168.5042  2p   -118.9902
   8-  1s  -2078.4771  2s   -168.5042  2p   -118.9902
   9-  1s  -2078.4477  2s   -168.4737  2p   -118.9598
  10-  1s  -2078.4477  2s   -168.4737  2p   -118.9598
  11-  1s  -2078.3885  2s   -168.4206  2p   -118.9061
  12-  1s  -2078.3885  2s   -168.4206  2p   -118.9061
 
 E-fermi :   0.9388     XC(G=0):  -5.1353     alpha+bet : -5.5572


 k-point     1 :       0.0000    0.0000    0.0000
  band No.  band energies     occupation 
      1     -14.8547      2.00000
      2     -14.7346      2.00000
      3     -14.6658      2.00000
      4     -12.3737      2.00000
      5     -12.1280      2.00000
      6     -11.9481      2.00000
      7      -8.6066      2.00000
      8      -8.5226      2.00000
      9      -8.4923      2.00000
     10      -5.9246      2.00000
     11      -5.5459      2.00000
     12      -5.1276      2.00000
     13      -4.5055      2.00000
     14      -4.5054      2.00000
     15      -4.1879      2.00000
     16      -4.1436      2.00000
     17      -3.9962      2.00000
     18      -3.9220      2.00000
     19      -3.3942      2.00000
     20      -3.2935      2.00000
     21      -3.2437      2.00000
     22      -1.8803      2.00000
     23      -1.7370      2.00000
     24      -1.6253      2.00000
     25      -1.5901      2.00000
     26      -1.5050      2.00000
     27      -1.1085      2.00000
     28      -0.2502      2.00000
     29       0.3536      2.00000
     30       0.9090      1.99997
     31       0.9686      0.00003
     32       1.4963      0.00000
     33       1.5222      0.00000
     34       1.6968      0.00000
     35       1.7043      0.00000
     36       1.8602      0.00000
     37       2.7295      0.00000
     38       2.8999      0.00000
     39       2.9709      0.00000
     40       3.6952      0.00000

 k-point     2 :       0.1667    0.0000    0.0000
  band No.  band energies     occupation 
      1     -14.5312      2.00000
      2     -14.4122      2.00000
      3     -14.3447      2.00000
      4     -12.0370      2.00000
      5     -11.7927      2.00000
      6     -11.6139      2.00000
      7      -8.8992      2.00000
      8      -8.8383      2.00000
      9      -8.8323      2.00000
     10      -5.6516      2.00000
     11      -5.2806      2.00000
     12      -4.9727      2.00000
     13      -4.8918      2.00000
     14      -4.8853      2.00000
     15      -4.8538      2.00000
     16      -4.4289      2.00000
     17      -4.3556      2.00000
     18      -4.3449      2.00000
     19      -4.2194      2.00000
     20      -3.8749      2.00000
     21      -3.7307      2.00000
     22      -2.6620      2.00000
     23      -2.5117      2.00000
     24      -2.3464      2.00000
     25      -1.7423      2.00000
     26      -1.4710      2.00000
     27      -0.9685      2.00000
     28      -0.2142      2.00000
     29       0.1861      2.00000
     30       0.4565      2.00000
     31       1.2519      0.00000
     32       1.6565      0.00000
     33       1.8809      0.00000
     34       2.3384      0.00000
     35       2.5504      0.00000
     36       2.5748      0.00000
     37       3.7493      0.00000
     38       3.8748      0.00000
     39       3.9795      0.00000
     40       4.2771      0.00000

 k-point     3 :       0.3333    0.0000    0.0000
  band No.  band energies     occupation 
      1     -13.5781      2.00000
      2     -13.4633      2.00000
      3     -13.4001      2.00000
      4     -11.0354      2.00000
      5     -10.7958      2.00000
      6     -10.6208      2.00000
      7     -10.2417      2.00000
      8     -10.1627      2.00000
      9     -10.1376      2.00000
     10      -7.2215      2.00000
     11      -7.0254      2.00000
     12      -6.8872      2.00000
     13      -4.9310      2.00000
     14      -4.9060      2.00000
     15      -4.8499      2.00000
     16      -4.8407      2.00000
     17      -4.6056      2.00000
     18      -4.3162      2.00000
     19      -3.4265      2.00000
     20      -3.1572      2.00000
     21      -3.0342      2.00000
     22      -2.6860      2.00000
     23      -2.3966      2.00000
     24      -2.1622      2.00000
     25      -1.7912      2.00000
     26      -1.5221      2.00000
     27      -1.1905      2.00000
     28      -0.8936      2.00000
     29      -0.7538      2.00000
     30      -0.6904      2.00000
     31       1.1107      0.00000
     32       1.1719      0.00000
     33       1.4337      0.00000
     34       2.0729      0.00000
     35       2.2846      0.00000
     36       2.6020      0.00000
     37       2.6453      0.00000
     38       2.6613      0.00000
     39       2.6687      0.00000
     40       2.9494      0.00000

 k-point     4 :       0.5000    0.0000    0.0000
  band No.  band energies     occupation 
      1     -12.0675      2.00000
      2     -12.0675      2.00000
      3     -11.9627      2.00000
      4     -11.9627      2.00000
      5     -11.9103      2.00000
      6     -11.9103      2.00000
      7      -9.4001      2.00000
      8      -9.4001      2.00000
      9      -9.1715      2.00000
     10      -9.1715      2.00000
     11      -9.0053      2.00000
     12      -9.0053      2.00000
     13      -4.4699      2.00000
     14      -4.4699      2.00000
     15      -4.3357      2.00000
     16      -4.3357      2.00000
     17      -4.2900      2.00000
     18      -4.2900      2.00000
     19      -2.4677      2.00000
     20      -2.4677      2.00000
     21      -2.3942      2.00000
     22      -2.3942      2.00000
     23      -2.3938      2.00000
     24      -2.3938      2.00000
     25      -2.0110      2.00000
     26      -2.0110      2.00000
     27      -1.7404      2.00000
     28      -1.7404      2.00000
     29      -1.4882      2.00000
     30      -1.4882      2.00000
     31       1.6187      0.00000
     32       1.6187      0.00000
     33       1.6312      0.00000
     34       1.6312      0.00000
     35       1.7131      0.00000
     36       1.7131      0.00000
     37       2.1545      0.00000
     38       2.1546      0.00000
     39       2.1910      0.00000
     40       2.1911      0.00000

 k-point     5 :       0.0000    0.0000    0.2500
  band No.  band energies     occupation 
      1     -14.5032      2.00000
      2     -14.3903      2.00000
      3     -14.3293      2.00000
      4     -12.5961      2.00000
      5     -12.4624      2.00000
      6     -12.4017      2.00000
      7      -9.0059      2.00000
      8      -8.8493      2.00000
      9      -8.7267      2.00000
     10      -6.9122      2.00000
     11      -6.6394      2.00000
     12      -6.4715      2.00000
     13      -4.5491      2.00000
     14      -4.0382      2.00000
     15      -3.3762      2.00000
     16      -3.1170      2.00000
     17      -3.0638      2.00000
     18      -3.0247      2.00000
     19      -2.9838      2.00000
     20      -2.7188      2.00000
     21      -2.7181      2.00000
     22      -1.8654      2.00000
     23      -1.7650      2.00000
     24      -1.7339      2.00000
     25      -1.7263      2.00000
     26      -1.0753      2.00000
     27      -0.4264      2.00000
     28      -0.2676      2.00000
     29      -0.2051      2.00000
     30      -0.0276      2.00000
     31       1.6790      0.00000
     32       2.0054      0.00000
     33       2.1135      0.00000
     34       2.2068      0.00000
     35       2.2567      0.00000
     36       2.2599      0.00000
     37       2.3676      0.00000
     38       2.7081      0.00000
     39       3.2545      0.00000
     40       3.3403      0.00000

 k-point     6 :       0.1667    0.0000    0.2500
  band No.  band energies     occupation 
      1     -14.1845      2.00000
      2     -14.0728      2.00000
      3     -14.0130      2.00000
      4     -12.2802      2.00000
      5     -12.1509      2.00000
      6     -12.0943      2.00000
      7      -9.0397      2.00000
      8      -8.8875      2.00000
      9      -8.7742      2.00000
     10      -6.7963      2.00000
     11      -6.5667      2.00000
     12      -6.4200      2.00000
     13      -4.9862      2.00000
     14      -4.8456      2.00000
     15      -4.7167      2.00000
     16      -4.5119      2.00000
     17      -4.0380      2.00000
     18      -3.7239      2.00000
     19      -3.3134      2.00000
     20      -3.1980      2.00000
     21      -2.9145      2.00000
     22      -2.3361      2.00000
     23      -2.1653      2.00000
     24      -2.1440      2.00000
     25      -1.4993      2.00000
     26      -0.9519      2.00000
     27      -0.8612      2.00000
     28      -0.7312      2.00000
     29      -0.4609      2.00000
     30      -0.4125      2.00000
     31       2.0274      0.00000
     32       2.3123      0.00000
     33       2.5875      0.00000
     34       2.8628      0.00000
     35       3.0133      0.00000
     36       3.0652      0.00000
     37       3.3730      0.00000
     38       3.4976      0.00000
     39       3.6076      0.00000
     40       4.3192      0.00000

 k-point     7 :       0.3333    0.0000    0.2500
  band No.  band energies     occupation 
      1     -13.2534      2.00000
      2     -13.1463      2.00000
      3     -13.0915      2.00000
      4     -11.4368      2.00000
      5     -11.3346      2.00000
      6     -11.3016      2.00000
      7      -9.7502      2.00000
      8      -9.5902      2.00000
      9      -9.4806      2.00000
     10      -7.5241      2.00000
     11      -7.4372      2.00000
     12      -7.4165      2.00000
     13      -5.8331      2.00000
     14      -5.6653      2.00000
     15      -5.5321      2.00000
     16      -4.7975      2.00000
     17      -4.7534      2.00000
     18      -4.6783      2.00000
     19      -3.3918      2.00000
     20      -3.3112      2.00000
     21      -3.1777      2.00000
     22      -2.5127      2.00000
     23      -2.3686      2.00000
     24      -2.3640      2.00000
     25      -2.2361      2.00000
     26      -1.8481      2.00000
     27      -1.3305      2.00000
     28      -0.9602      2.00000
     29      -0.6602      2.00000
     30      -0.6243      2.00000
     31       1.7033      0.00000
     32       1.8314      0.00000
     33       2.0263      0.00000
     34       2.5144      0.00000
     35       2.7048      0.00000
     36       2.9609      0.00000
     37       3.1520      0.00000
     38       3.3299      0.00000
     39       3.3718      0.00000
     40       3.8737      0.00000

 k-point     8 :       0.5000    0.0000    0.2500
  band No.  band energies     occupation 
      1     -11.8545      2.00000
      2     -11.8545      2.00000
      3     -11.7627      2.00000
      4     -11.7627      2.00000
      5     -11.7244      2.00000
      6     -11.7244      2.00000
      7      -9.4310      2.00000
      8      -9.4310      2.00000
      9      -9.2733      2.00000
     10      -9.2733      2.00000
     11      -9.1819      2.00000
     12      -9.1819      2.00000
     13      -5.0177      2.00000
     14      -5.0177      2.00000
     15      -4.8282      2.00000
     16      -4.8282      2.00000
     17      -4.6765      2.00000
     18      -4.6765      2.00000
     19      -3.6867      2.00000
     20      -3.6867      2.00000
     21      -3.4424      2.00000
     22      -3.4424      2.00000
     23      -3.3092      2.00000
     24      -3.3092      2.00000
     25      -1.5496      2.00000
     26      -1.5496      2.00000
     27      -1.2060      2.00000
     28      -1.2060      2.00000
     29      -0.9103      2.00000
     30      -0.9103      2.00000
     31       2.0050      0.00000
     32       2.0050      0.00000
     33       2.3079      0.00000
     34       2.3079      0.00000
     35       2.4546      0.00000
     36       2.4546      0.00000
     37       3.1795      0.00000
     38       3.1795      0.00000
     39       3.4034      0.00000
     40       3.4034      0.00000

 k-point     9 :       0.0000    0.0000    0.5000
  band No.  band energies     occupation 
      1     -13.5469      2.00000
      2     -13.5469      2.00000
      3     -13.4773      2.00000
      4     -13.4773      2.00000
      5     -13.4309      2.00000
      6     -13.4309      2.00000
      7      -8.5713      2.00000
      8      -8.5713      2.00000
      9      -8.2548      2.00000
     10      -8.2548      2.00000
     11      -7.9812      2.00000
     12      -7.9812      2.00000
     13      -3.5915      2.00000
     14      -3.5915      2.00000
     15      -2.8287      2.00000
     16      -2.8287      2.00000
     17      -2.4230      2.00000
     18      -2.4230      2.00000
     19      -2.3793      2.00000
     20      -2.3793      2.00000
     21      -2.3340      2.00000
     22      -2.3340      2.00000
     23      -2.0236      2.00000
     24      -2.0236      2.00000
     25      -0.7280      2.00000
     26      -0.7280      2.00000
     27      -0.5203      2.00000
     28      -0.5203      2.00000
     29      -0.4478      2.00000
     30      -0.4478      2.00000
     31       2.1897      0.00000
     32       2.1897      0.00000
     33       2.2330      0.00000
     34       2.2330      0.00000
     35       2.2855      0.00000
     36       2.2855      0.00000
     37       3.4173      0.00000
     38       3.4181      0.00000
     39       3.5767      0.00000
     40       3.5890      0.00000

 k-point    10 :       0.1667    0.0000    0.5000
  band No.  band energies     occupation 
      1     -13.2408      2.00000
      2     -13.2408      2.00000
      3     -13.1714      2.00000
      4     -13.1714      2.00000
      5     -13.1260      2.00000
      6     -13.1260      2.00000
      7      -8.4265      2.00000
      8      -8.4265      2.00000
      9      -8.1363      2.00000
     10      -8.1363      2.00000
     11      -7.8957      2.00000
     12      -7.8957      2.00000
     13      -4.3702      2.00000
     14      -4.3702      2.00000
     15      -4.2642      2.00000
     16      -4.2642      2.00000
     17      -4.1661      2.00000
     18      -4.1661      2.00000
     19      -3.3514      2.00000
     20      -3.3514      2.00000
     21      -2.6382      2.00000
     22      -2.6382      2.00000
     23      -1.9683      2.00000
     24      -1.9683      2.00000
     25      -0.8123      2.00000
     26      -0.8123      2.00000
     27      -0.6453      2.00000
     28      -0.6453      2.00000
     29      -0.4919      2.00000
     30      -0.4919      2.00000
     31       2.8448      0.00000
     32       2.8448      0.00000
     33       2.9829      0.00000
     34       2.9829      0.00000
     35       3.0962      0.00000
     36       3.0962      0.00000
     37       3.5133      0.00000
     38       3.5133      0.00000
     39       3.9741      0.00000
     40       3.9741      0.00000

 k-point    11 :       0.3333    0.0000    0.5000
  band No.  band energies     occupation 
      1     -12.3829      2.00000
      2     -12.3829      2.00000
      3     -12.3156      2.00000
      4     -12.3156      2.00000
      5     -12.2755      2.00000
      6     -12.2755      2.00000
      7      -8.6636      2.00000
      8      -8.6636      2.00000
      9      -8.5141      2.00000
     10      -8.5141      2.00000
     11      -8.4283      2.00000
     12      -8.4283      2.00000
     13      -5.7961      2.00000
     14      -5.7961      2.00000
     15      -5.5449      2.00000
     16      -5.5449      2.00000
     17      -5.3202      2.00000
     18      -5.3202      2.00000
     19      -3.4355      2.00000
     20      -3.4355      2.00000
     21      -3.0691      2.00000
     22      -3.0691      2.00000
     23      -2.7860      2.00000
     24      -2.7860      2.00000
     25      -1.8733      2.00000
     26      -1.8733      2.00000
     27      -1.3278      2.00000
     28      -1.3278      2.00000
     29      -0.8288      2.00000
     30      -0.8288      2.00000
     31       2.6917      0.00000
     32       2.6917      0.00000
     33       3.2783      0.00000
     34       3.2783      0.00000
     35       3.9560      0.00000
     36       3.9564      0.00000
     37       3.9833      0.00000
     38       3.9847      0.00000
     39       4.0856      0.00000
     40       4.0902      0.00000

 k-point    12 :       0.5000    0.0000    0.5000
  band No.  band energies     occupation 
      1     -11.5663      2.00000
      2     -11.5663      2.00000
      3     -11.5107      2.00000
      4     -11.5107      2.00000
      5     -11.5106      2.00000
      6     -11.5106      2.00000
      7      -9.5296      2.00000
      8      -9.5296      2.00000
      9      -9.4665      2.00000
     10      -9.4665      2.00000
     11      -9.4652      2.00000
     12      -9.4652      2.00000
     13      -4.9612      2.00000
     14      -4.9612      2.00000
     15      -4.9464      2.00000
     16      -4.9464      2.00000
     17      -4.6716      2.00000
     18      -4.6716      2.00000
     19      -4.6179      2.00000
     20      -4.6179      2.00000
     21      -4.3757      2.00000
     22      -4.3757      2.00000
     23      -4.3750      2.00000
     24      -4.3750      2.00000
     25      -1.2347      2.00000
     26      -1.2347      2.00000
     27      -1.1808      2.00000
     28      -1.1808      2.00000
     29      -1.0523      2.00000
     30      -1.0523      2.00000
     31       2.6253      0.00000
     32       2.6253      0.00000
     33       2.7584      0.00000
     34       2.7584      0.00000
     35       2.8969      0.00000
     36       2.8969      0.00000
     37       4.8103      0.00000
     38       4.8354      0.00000
     39       4.8644      0.00000
     40       4.8676      0.00000


--------------------------------------------------------------------------------------------------------


 soft charge-density along one line, spin component           1
         0         1         2         3         4         5         6         7         8         9
 total charge-density along one line
 
 pseudopotential strength for first ion, spin component:           1
 29.685  37.031   0.035  -0.033   0.000   0.055  -0.052   0.000
 37.031  46.199   0.044  -0.041   0.000   0.068  -0.064   0.000
  0.035   0.044   6.554   0.006  -0.000  10.135   0.009  -0.000
 -0.033  -0.041   0.006   6.558  -0.000   0.009  10.141  -0.000
  0.000   0.000  -0.000  -0.000   6.562  -0.000  -0.000  10.148
  0.055   0.068  10.135   0.009  -0.000  15.692   0.014  -0.000
 -0.052  -0.064   0.009  10.141  -0.000   0.014  15.701  -0.000
  0.000   0.000  -0.000  -0.000  10.148  -0.000  -0.000  15.711
 total augmentation occupancy for first ion, spin component:           1
  8.276  -4.721   1.854  -1.945   0.000  -0.591   0.649   0.000
 -4.721   3.435  -1.594   1.650   0.000   0.437  -0.476   0.000
  1.854  -1.594   3.129   0.195   0.000  -0.824  -0.162   0.000
 -1.945   1.650   0.195   3.270   0.000  -0.161  -0.923  -0.000
  0.000  -0.000   0.000   0.000   3.400   0.000   0.000  -1.026
 -0.591   0.437  -0.824  -0.161   0.000   0.259   0.070   0.000
  0.649  -0.476  -0.162  -0.923   0.000   0.070   0.298   0.000
  0.000   0.000   0.000   0.000  -1.026   0.000   0.000   0.339


------------------------ aborting loop because EDIFF is reached ----------------------------------------


 


 total charge     
 
# of ion       s       p       d       tot
------------------------------------------
    1        1.082   1.376   0.000   2.458
    2        1.082   1.376   0.000   2.458
    3        1.083   1.372   0.000   2.455
    4        1.083   1.372   0.000   2.455
    5        1.084   1.371   0.000   2.455
    6        1.084   1.371   0.000   2.455
    7        1.084   1.371   0.000   2.455
    8        1.084   1.371   0.000   2.455
    9        1.083   1.372   0.000   2.455
   10        1.083   1.372   0.000   2.455
   11        1.082   1.376   0.000   2.458
   12        1.082   1.376   0.000   2.458
--------------------------------------------------
tot         12.997  16.477   0.000  29.473
 
    CHARGE:  cpu time    0.0608: real time    0.0608
    FORLOC:  cpu time    0.0027: real time    0.0027
    FORNL :  cpu time    0.2364: real time    0.2367
    STRESS:  cpu time    0.3992: real time    0.3993
    FORCOR:  cpu time    0.0353: real time    0.0354
    FORHAR:  cpu time    0.0101: real time    0.0101
    MIXING:  cpu time    0.0016: real time    0.0016
    OFIELD:  cpu time    0.0000: real time    0.0000

  DFT-D2 method for vdW energy calculation
  -------------------------------------------------------------------

  Parameters of vdW forcefield:
         C6(Jnm^6/mol)     R0(A)
   -----------------------------
   P        7.840          1.705

  IVDW =  10
  VDW_RADIUS =    50.000 A
  VDW_S6 =     0.750
  VDW_SR =     1.000
  VDW_D =    20.000
  LVDW_EWALD = F

  Number of pair interactions contributing to vdW energy:   88382
  Edisp (eV):   -2.17394
    FORVDW:  cpu time    0.0522: real time    0.0527

  FORCE on cell =-STRESS in cart. coord.  units (eV):
  Direction    XX          YY          ZZ          XY          YZ          ZX
  --------------------------------------------------------------------------------------
  Alpha Z    30.28014    30.28014    30.28014
  Ewald   16591.01473-18044.25022 16426.47569    -0.00000     0.00000     0.00000
  Hartree 16898.22510-16770.96331 16841.04090    -0.00000    -0.00000    -0.00000
  E(xc)    -201.47036  -202.72931  -201.66067    -0.00000    -0.00000     0.00000
  Local  -34440.90980 33820.50170-34239.57767     0.00000     0.00000    -0.00000
  n-local   679.67111   678.01703   674.49906     0.00000    -0.00000     1.46274
  augment  -126.46332  -130.49343  -128.84075     0.00000    -0.00000    -0.00000
  Kinetic   570.18543   620.11087   600.02943     0.00000    -0.00000     6.08077
  Fock        0.00000     0.00000     0.00000     0.00000     0.00000     0.00000
  vdW        -0.23282    -1.41063    -0.99576    -0.00000    -0.00000     0.00000
  -------------------------------------------------------------------------------------
  Total       0.30023    -0.93716     1.25036     0.00000    -0.00000     0.00000
  in kB       1.00887    -3.14913     4.20158     0.00000    -0.00000     0.00000
  external pressure =        0.69 kB  Pullay stress =        0.00 kB


 VOLUME and BASIS-vectors are now :
 -----------------------------------------------------------------------------
  energy-cutoff  :      700.00
  volume of cell :      476.80
      direct lattice vectors                 reciprocal lattice vectors
     3.342886000  0.000000000  0.000000000     0.299142717  0.000000000  0.000000000
     0.000000000 32.602409000  0.000000000     0.000000000  0.030672580  0.000000000
     0.000000000  0.000000000  4.374831000     0.000000000  0.000000000  0.228580258

  length of vectors
     3.342886000 32.602409000  4.374831000     0.299142717  0.030672580  0.228580258


 FORCES acting on ions
    electron-ion (+dipol)            ewald-force                    non-local-force                 convergence-correction
 -----------------------------------------------------------------------------------------------
   0.478E-15 0.823E+03 -.291E+02   0.114E-14 -.828E+03 0.342E+02   -.278E-16 0.582E+01 -.517E+01   -.922E-15 -.196E-02 -.371E-03
   -.123E-13 0.823E+03 0.291E+02   -.458E-14 -.828E+03 -.342E+02   -.278E-16 0.582E+01 0.517E+01   0.129E-14 -.196E-02 0.371E-03
   -.672E-15 0.459E+03 0.260E+02   0.181E-14 -.453E+03 -.313E+02   -.278E-16 -.553E+01 0.522E+01   0.147E-14 -.276E-02 -.232E-03
   -.112E-13 0.459E+03 -.260E+02   -.613E-14 -.453E+03 0.313E+02   -.278E-16 -.553E+01 -.522E+01   -.227E-14 -.276E-02 0.232E-03
   -.112E-13 0.183E+03 -.262E+02   0.754E-15 -.189E+03 0.314E+02   0.000E+00 0.546E+01 -.521E+01   0.314E-14 0.400E-02 -.104E-02
   0.155E-14 0.183E+03 0.262E+02   -.638E-14 -.189E+03 -.314E+02   0.278E-16 0.546E+01 0.521E+01   -.348E-14 0.400E-02 0.104E-02
   -.112E-13 -.183E+03 0.262E+02   0.197E-14 0.189E+03 -.314E+02   0.000E+00 -.546E+01 0.521E+01   -.134E-14 -.400E-02 0.104E-02
   0.802E-15 -.183E+03 -.262E+02   -.498E-14 0.189E+03 0.314E+02   -.278E-16 -.546E+01 -.521E+01   0.157E-14 -.400E-02 -.104E-02
   -.756E-15 -.459E+03 -.260E+02   0.911E-15 0.453E+03 0.313E+02   0.278E-16 0.553E+01 -.522E+01   0.174E-14 0.276E-02 0.232E-03
   -.125E-13 -.459E+03 0.260E+02   -.523E-14 0.453E+03 -.313E+02   0.278E-16 0.553E+01 0.522E+01   -.195E-14 0.276E-02 -.232E-03
   0.216E-16 -.823E+03 0.291E+02   0.158E-14 0.828E+03 -.342E+02   0.278E-16 -.582E+01 0.517E+01   0.215E-14 0.196E-02 0.371E-03
   -.143E-13 -.823E+03 -.291E+02   -.679E-14 0.828E+03 0.342E+02   0.278E-16 -.582E+01 -.517E+01   -.218E-14 0.196E-02 -.371E-03
 -----------------------------------------------------------------------------------------------
   -.712E-13 0.609E-12 0.424E-10   -.259E-13 0.000E+00 -.711E-14   0.000E+00 -.888E-15 0.888E-15   -.793E-15 0.337E-13 -.970E-17
 
 
 POSITION                                       TOTAL-FORCE (eV/Angst)
 -----------------------------------------------------------------------------------
      0.00000     10.00001      4.02014         0.000000      0.081889     -0.038713
      1.67144     10.00001      2.54211         0.000000      0.081889      0.038713
      0.00000     12.14332      0.35469         0.000000     -0.077615     -0.021204
      1.67144     12.14332      1.83272         0.000000     -0.077615      0.021204
      1.67144     15.22953      4.02014         0.000000      0.038244      0.002340
      0.00000     15.22953      2.54211         0.000000      0.038244     -0.002340
      1.67144     17.37288      0.35469        -0.000000     -0.038244     -0.002340
      0.00000     17.37288      1.83272         0.000000     -0.038244      0.002340
      0.00000     20.45909      4.02014         0.000000      0.077615      0.021204
      1.67144     20.45909      2.54211         0.000000      0.077615     -0.021204
      0.00000     22.60240      0.35469         0.000000     -0.081889      0.038713
      1.67144     22.60240      1.83272         0.000000     -0.081889     -0.038713
 -----------------------------------------------------------------------------------
    total drift:                               -0.000000      0.000000      0.000000


--------------------------------------------------------------------------------------------------------



  FREE ENERGIE OF THE ION-ELECTRON SYSTEM (eV)
  ---------------------------------------------------
  free  energy   TOTEN  =       -66.51546075 eV

  energy  without entropy=      -66.51546069  energy(sigma->0) =      -66.51546072
 


--------------------------------------------------------------------------------------------------------


    POTLOK:  cpu time    0.1290: real time    0.1290


--------------------------------------------------------------------------------------------------------


 writing wavefunctions
     LOOP+:  cpu time   24.8418: real time   24.9068
    4ORBIT:  cpu time    0.0000: real time    0.0000
 


 total charge     
 
# of ion       s       p       d       tot
------------------------------------------
    1        1.082   1.376   0.000   2.458
    2        1.082   1.376   0.000   2.458
    3        1.083   1.372   0.000   2.455
    4        1.083   1.372   0.000   2.455
    5        1.084   1.371   0.000   2.455
    6        1.084   1.371   0.000   2.455
    7        1.084   1.371   0.000   2.455
    8        1.084   1.371   0.000   2.455
    9        1.083   1.372   0.000   2.455
   10        1.083   1.372   0.000   2.455
   11        1.082   1.376   0.000   2.458
   12        1.082   1.376   0.000   2.458
--------------------------------------------------
tot         12.997  16.477   0.000  29.473
 

 total amount of memory used by VASP MPI-rank0    42584. kBytes
=======================================================================

   base      :      30000. kBytes
   nonl-proj :       2430. kBytes
   fftplans  :       2143. kBytes
   grid      :       3113. kBytes
   one-center:          6. kBytes
   wavefun   :       4892. kBytes
 
  
  
 General timing and accounting informations for this job:
 ========================================================
  
                  Total CPU time used (sec):       34.137
                            User time (sec):       27.307
                          System time (sec):        6.830
                         Elapsed time (sec):       34.530
  
                   Maximum memory used (kb):      114556.
                   Average memory used (kb):           0.
  
                          Minor page faults:        45052
                          Major page faults:            0
                 Voluntary context switches:         2592
