 vasp.5.4.4.18Apr17-6-g9f103f2a35 (build Jun 20 2017 18:00:50) complex          
  
 executed on             LinuxIFC date 2018.03.16  16:03:04
 running on   32 total cores
 distrk:  each k-point on   32 cores,    1 groups
 distr:  one band on NCORES_PER_BAND=   8 cores,    4 groups


--------------------------------------------------------------------------------------------------------


 INCAR:
 POTCAR:    PAW_PBE P 06Sep2000                   
 POTCAR:    PAW_PBE P 06Sep2000                   
   VRHFIN =P : s2p3                                                             
   LEXCH  = PE                                                                  
   EATOM  =   176.0430 eV,   12.9388 Ry                                         
                                                                                
   TITEL  = PAW_PBE P 06Sep2000                                                 
   LULTRA =        F    use ultrasoft PP ?                                      
   IUNSCR =        1    unscreen: 0-lin 1-nonlin 2-no                           
   RPACOR =    1.500    partial core radius                                     
   POMASS =   30.974; ZVAL   =    5.000    mass and valenz                      
   RCORE  =    1.900    outmost cutoff radius                                   
   RWIGS  =    2.330; RWIGS  =    1.233    wigner-seitz radius (au A)           
   ENMAX  =  255.040; ENMIN  =  191.280 eV                                      
   ICORE  =        2    local potential                                         
   LCOR   =        T    correct aug charges                                     
   LPAW   =        T    paw PP                                                  
   EAUG   =  342.924                                                            
   DEXC   =    0.000                                                            
   RMAX   =    1.935    core radius for proj-oper                               
   RAUG   =    1.300    factor for augmentation sphere                          
   RDEP   =    1.931    radius for radial grids                                 
   RDEPT  =    1.794    core radius for aug-charge                              
                                                                                
   Atomic configuration                                                         
    6 entries                                                                   
     n  l   j            E        occ.                                          
     1  0  0.50     -2084.0982   2.0000                                         
     2  0  0.50      -173.9859   2.0000                                         
     2  1  1.50      -124.4865   6.0000                                         
     3  0  0.50       -13.9692   2.0000                                         
     3  1  0.50        -5.5067   3.0000                                         
     3  2  1.50        -5.4423   0.0000                                         
   Description                                                                  
     l       E           TYP  RCUT    TYP  RCUT                                 
     0    -13.9691527     23  1.900                                             
     0    -11.7794650     23  1.900                                             
     1     -5.5066937     23  1.900                                             
     1     -0.2556953     23  1.900                                             
     2     -5.4423304     23  1.900                                             
  local pseudopotential read in
  partial core-charges read in
  partial kinetic energy density read in
  atomic valenz-charges read in
  non local Contribution for L=           0  read in
    real space projection operators read in
  non local Contribution for L=           0  read in
    real space projection operators read in
  non local Contribution for L=           1  read in
    real space projection operators read in
  non local Contribution for L=           1  read in
    real space projection operators read in
    PAW grid and wavefunctions read in
 
   number of l-projection  operators is LMAX  =           4
   number of lm-projection operators is LMMAX =           8
 
  PAW_PBE P 06Sep2000                   :
 energy of atom  1       EATOM= -176.0430
 kinetic energy error for atom=    0.0019 (will be added to EATOM!!)
 
 
 POSCAR: P12                                     
  positions in direct lattice
  No initial velocities read in
 exchange correlation table for  LEXCH =        8
   RHO(1)=    0.500       N(1)  =     2000
   RHO(2)=  100.500       N(2)  =     4000
 


--------------------------------------------------------------------------------------------------------


 ion  position               nearest neighbor table
   1  0.000  0.307  0.919-   2 2.23   2 2.23   3 2.26
   2  0.500  0.307  0.581-   1 2.23   1 2.23   4 2.26
   3  0.000  0.372  0.081-   4 2.23   4 2.23   1 2.26
   4  0.500  0.372  0.419-   3 2.23   3 2.23   2 2.26
   5  0.500  0.467  0.919-   6 2.23   6 2.23   7 2.26
   6  0.000  0.467  0.581-   5 2.23   5 2.23   8 2.26
   7  0.500  0.533  0.081-   8 2.23   8 2.23   5 2.26
   8  0.000  0.533  0.419-   7 2.23   7 2.23   6 2.26
   9  0.000  0.628  0.919-  10 2.23  10 2.23  11 2.26
  10  0.500  0.628  0.581-   9 2.23   9 2.23  12 2.26
  11  0.000  0.693  0.081-  12 2.23  12 2.23   9 2.26
  12  0.500  0.693  0.419-  11 2.23  11 2.23  10 2.26
 
  LATTYP: Found a simple orthorhombic cell.
 ALAT       =     3.3428860000
 B/A-ratio  =     1.3086988309
 C/A-ratio  =     9.7527732026
  
  Lattice vectors:
  
 A1 = (  -3.3428860000,   0.0000000000,   0.0000000000)
 A2 = (   0.0000000000,   0.0000000000,  -4.3748310000)
 A3 = (   0.0000000000, -32.6024090000,   0.0000000000)


Analysis of symmetry for initial positions (statically):
=====================================================================
 Subroutine PRICEL returns:
 Original cell was already a primitive cell.
 

 Routine SETGRP: Setting up the symmetry group for a 
 simple orthorhombic supercell.


 Subroutine GETGRP returns: Found  8 space group operations
 (whereof  4 operations were pure point group operations)
 out of a pool of  8 trial point group operations.


The static configuration has the point symmetry C_2h.
 The point group associated with its full space group is D_2h.


Analysis of symmetry for dynamics (positions and initial velocities):
=====================================================================
 Subroutine PRICEL returns:
 Original cell was already a primitive cell.
 

 Routine SETGRP: Setting up the symmetry group for a 
 simple orthorhombic supercell.


 Subroutine GETGRP returns: Found  8 space group operations
 (whereof  4 operations were pure point group operations)
 out of a pool of  8 trial point group operations.


The dynamic configuration has the point symmetry C_2h.
 The point group associated with its full space group is D_2h.


 Subroutine INISYM returns: Found  8 space group operations
 (whereof  4 operations are pure point group operations),
 and found     1 'primitive' translations

 
 
 KPOINTS: Automatic mesh                          

Automatic generation of k-mesh.
Space group operators:
 irot       det(A)        alpha          n_x          n_y          n_z        tau_x        tau_y        tau_z
    1     1.000000     0.000001     1.000000     0.000000     0.000000     0.000000     0.000000     0.000000
    2    -1.000000     0.000001     1.000000     0.000000     0.000000     0.000000     0.000000     0.000000
    3     1.000000   179.999999     1.000000     0.000000     0.000000     0.000000     0.000000     0.000000
    4    -1.000000   179.999999     1.000000     0.000000     0.000000     0.000000     0.000000     0.000000
    5     1.000000   179.999999     0.000000     1.000000     0.000000    -0.500000     0.000000    -0.500000
    6    -1.000000   179.999999     0.000000     1.000000     0.000000    -0.500000     0.000000    -0.500000
    7     1.000000   179.999999     0.000000     0.000000     1.000000    -0.500000     0.000000    -0.500000
    8    -1.000000   179.999999     0.000000     0.000000     1.000000    -0.500000     0.000000    -0.500000
 
 Subroutine IBZKPT returns following result:
 ===========================================
 
 Found     12 irreducible k-points:
 
 Following reciprocal coordinates:
            Coordinates               Weight
  0.000000  0.000000  0.000000      1.000000
  0.166667  0.000000  0.000000      2.000000
  0.333333  0.000000  0.000000      2.000000
  0.500000  0.000000  0.000000      1.000000
  0.000000  0.000000  0.250000      2.000000
  0.166667  0.000000  0.250000      4.000000
  0.333333  0.000000  0.250000      4.000000
  0.500000  0.000000  0.250000      2.000000
  0.000000  0.000000  0.500000      1.000000
  0.166667  0.000000  0.500000      2.000000
  0.333333  0.000000  0.500000      2.000000
  0.500000  0.000000  0.500000      1.000000
 
 Following cartesian coordinates:
            Coordinates               Weight
  0.000000  0.000000  0.000000      1.000000
  0.049857  0.000000  0.000000      2.000000
  0.099714  0.000000  0.000000      2.000000
  0.149571  0.000000  0.000000      1.000000
  0.000000  0.000000  0.057145      2.000000
  0.049857  0.000000  0.057145      4.000000
  0.099714  0.000000  0.057145      4.000000
  0.149571  0.000000  0.057145      2.000000
  0.000000  0.000000  0.114290      1.000000
  0.049857  0.000000  0.114290      2.000000
  0.099714  0.000000  0.114290      2.000000
  0.149571  0.000000  0.114290      1.000000
 


--------------------------------------------------------------------------------------------------------




 Dimension of arrays:
   k-points           NKPTS =     12   k-points in BZ     NKDIM =     12   number of bands    NBANDS=     40
   number of dos      NEDOS =   2000   number of ions     NIONS =     12
   non local maximal  LDIM  =      4   non local SUM 2l+1 LMDIM =      8
   total plane-waves  NPLWV =  77760
   max r-space proj   IRMAX =      1   max aug-charges    IRDMAX=   5162
   dimension x,y,z NGX =    18 NGY =  180 NGZ =   24
   dimension x,y,z NGXF=    36 NGYF=  360 NGZF=   48
   support grid    NGXF=    36 NGYF=  360 NGZF=   48
   ions per type =              12
   NGX,Y,Z   is equivalent  to a cutoff of   8.95,  9.18,  9.12 a.u.
   NGXF,Y,Z  is equivalent  to a cutoff of  17.90, 18.36, 18.24 a.u.

 SYSTEM =  Generic Input                           
 POSCAR =  P12                                     

 Startparameter for this run:
   NWRITE =      2    write-flag & timer
   PREC   = normal    normal or accurate (medium, high low for compatibility)
   ISTART =      0    job   : 0-new  1-cont  2-samecut
   ICHARG =      2    charge: 1-file 2-atom 10-const
   ISPIN  =      1    spin polarized calculation?
   LNONCOLLINEAR =      F non collinear calculations
   LSORBIT =      F    spin-orbit coupling
   INIWAV =      1    electr: 0-lowe 1-rand  2-diag
   LASPH  =      T    aspherical Exc in radial PAW
   METAGGA=      F    non-selfconsistent MetaGGA calc.

 Electronic Relaxation 1
   ENCUT  =  450.0 eV  33.07 Ry    5.75 a.u.   5.78 56.39  7.57*2*pi/ulx,y,z
   ENINI  =  450.0     initial cutoff
   ENAUG  =  342.9 eV  augmentation charge cutoff
   NELM   =    200;   NELMIN=  2; NELMDL=  0     # of ELM steps 
   EDIFF  = 0.1E-04   stopping-criterion for ELM
   LREAL  =      F    real-space projection
   NLSPLINE    = F    spline interpolate recip. space projectors
   LCOMPAT=      F    compatible to vasp.4.4
   GGA_COMPAT  = T    GGA compatible to vasp.4.4-vasp.4.6
   LMAXPAW     = -100 max onsite density
   LMAXMIX     =    2 max onsite mixed and CHGCAR
   VOSKOWN=      0    Vosko Wilk Nusair interpolation
   ROPT   =    0.00000
 Ionic relaxation
   EDIFFG = -.2E-01   stopping-criterion for IOM
   NSW    =      0    number of steps for IOM
   NBLOCK =      1;   KBLOCK =      1    inner block; outer block 
   IBRION =     -1    ionic relax: 0-MD 1-quasi-New 2-CG
   NFREE  =      1    steps in history (QN), initial steepest desc. (CG)
   ISIF   =      3    stress and relaxation
   IWAVPR =     11    prediction:  0-non 1-charg 2-wave 3-comb
   ISYM   =      2    0-nonsym 1-usesym 2-fastsym
   LCORR  =      T    Harris-Foulkes like correction to forces

   POTIM  = 0.5000    time-step for ionic-motion
   TEIN   =    0.0    initial temperature
   TEBEG  =    0.0;   TEEND  =   0.0 temperature during run
   SMASS  =  -3.00    Nose mass-parameter (am)
   estimated Nose-frequenzy (Omega)   =  0.10E-29 period in steps =****** mass=  -0.255E-27a.u.
   SCALEE = 1.0000    scale energy and forces
   NPACO  =    256;   APACO  = 16.0  distance and # of slots for P.C.
   PSTRESS=    0.0 pullay stress

  Mass of Ions in am
   POMASS =  30.97
  Ionic Valenz
   ZVAL   =   5.00
  Atomic Wigner-Seitz radii
   RWIGS  =  -1.00
  virtual crystal weights 
   VCA    =   1.00
   NELECT =      60.0000    total number of electrons
   NUPDOWN=      -1.0000    fix difference up-down

 DOS related values:
   EMIN   =  10.00;   EMAX   =-10.00  energy-range for DOS
   EFERMI =   0.00
   ISMEAR =     0;   SIGMA  =   0.01  broadening in eV -4-tet -1-fermi 0-gaus

 Electronic relaxation 2 (details)
   IALGO  =     38    algorithm
   LDIAG  =      T    sub-space diagonalisation (order eigenvalues)
   LSUBROT=      F    optimize rotation matrix (better conditioning)
   TURBO    =      0    0=normal 1=particle mesh
   IRESTART =      0    0=no restart 2=restart with 2 vectors
   NREBOOT  =      0    no. of reboots
   NMIN     =      0    reboot dimension
   EREF     =   0.00    reference energy to select bands
   IMIX   =      4    mixing-type and parameters
     AMIX     =   0.40;   BMIX     =  1.00
     AMIX_MAG =   1.60;   BMIX_MAG =  1.00
     AMIN     =   0.10
     WC   =   100.;   INIMIX=   1;  MIXPRE=   1;  MAXMIX= -45

 Intra band minimization:
   WEIMIN = 0.0000     energy-eigenvalue tresh-hold
   EBREAK =  0.63E-07  absolut break condition
   DEPER  =   0.30     relativ break condition  

   TIME   =   0.40     timestep for ELM

  volume/ion in A,a.u.               =      39.73       268.13
  Fermi-wavevector in a.u.,A,eV,Ry     =   0.820379  1.550291  9.157011  0.673021
  Thomas-Fermi vector in A             =   1.931350
 
 Write flags
   LWAVE        =      T    write WAVECAR
   LDOWNSAMPLE  =      F    k-point downsampling of WAVECAR
   LCHARG       =      T    write CHGCAR
   LVTOT        =      F    write LOCPOT, total local potential
   LVHAR        =      T    write LOCPOT, Hartree potential only
   LELF         =      F    write electronic localiz. function (ELF)
   LORBIT       =     11    0 simple, 1 ext, 2 COOP (PROOUT), +10 PAW based schemes


 Dipole corrections
   LMONO  =      F    monopole corrections only (constant potential shift)
   LDIPOL =      F    correct potential (dipole corrections)
   IDIPOL =      0    1-x, 2-y, 3-z, 4-all directions 
   EPSILON=  1.0000000 bulk dielectric constant

 Core level calculations are selected ICORELEVEL =  1
 Exchange correlation treatment:
   GGA     =    PE    GGA type
   LEXCH   =     8    internal setting for exchange type
   VOSKOWN=      0    Vosko Wilk Nusair interpolation
   LHFCALC =     F    Hartree Fock is set to
   LHFONE  =     F    Hartree Fock one center treatment
   AEXX    =    0.0000 exact exchange contribution

 Linear response parameters
   LEPSILON=     F    determine dielectric tensor
   LRPA    =     F    only Hartree local field effects (RPA)
   LNABLA  =     F    use nabla operator in PAW spheres
   LVEL    =     F    velocity operator in full k-point grid
   LINTERFAST=   F  fast interpolation
   KINTER  =     0    interpolate to denser k-point grid
   CSHIFT  =0.1000    complex shift for real part using Kramers Kronig
   OMEGAMAX=  -1.0    maximum frequency
   DEG_THRESHOLD= 0.2000000E-02 threshold for treating states as degnerate
   RTIME   =   -0.100 relaxation time in fs
  (WPLASMAI=    0.000 imaginary part of plasma frequency in eV, 0.658/RTIME)
   DFIELD  = 0.0000000 0.0000000 0.0000000 field for delta impulse in time
 
 Orbital magnetization related:
   ORBITALMAG=     F  switch on orbital magnetization
   LCHIMAG   =     F  perturbation theory with respect to B field
   DQ        =  0.001000  dq finite difference perturbation B field
   LLRAUG    =     F  two centre corrections for induced B field



--------------------------------------------------------------------------------------------------------


 Static calculation
 charge density and potential will be updated during run
 non-spin polarized calculation
 Variant of blocked Davidson
 Davidson routine will perform the subspace rotation
 perform sub-space diagonalisation
    after iterative eigenvector-optimisation
 modified Broyden-mixing scheme, WC =      100.0
 initial mixing is a Kerker type mixing with AMIX =  0.4000 and BMIX =      1.0000
 Hartree-type preconditioning will be used
 using additional bands           10
 reciprocal scheme for non local part
 use partial core corrections
 calculate Harris-corrections to forces 
   (improved forces if not selfconsistent)
 use gradient corrections 
 use of overlap-Matrix (Vanderbilt PP)
 Gauss-broadening in eV      SIGMA  =   0.01


--------------------------------------------------------------------------------------------------------


  energy-cutoff  :      450.00
  volume of cell :      476.80
      direct lattice vectors                 reciprocal lattice vectors
     3.342886000  0.000000000  0.000000000     0.299142717  0.000000000  0.000000000
     0.000000000 32.602409000  0.000000000     0.000000000  0.030672580  0.000000000
     0.000000000  0.000000000  4.374831000     0.000000000  0.000000000  0.228580258

  length of vectors
     3.342886000 32.602409000  4.374831000     0.299142717  0.030672580  0.228580258


 
 k-points in units of 2pi/SCALE and weight: Automatic mesh                          
   0.00000000  0.00000000  0.00000000       0.042
   0.04985712  0.00000000  0.00000000       0.083
   0.09971424  0.00000000  0.00000000       0.083
   0.14957136  0.00000000  0.00000000       0.042
   0.00000000  0.00000000  0.05714506       0.083
   0.04985712  0.00000000  0.05714506       0.167
   0.09971424  0.00000000  0.05714506       0.167
   0.14957136  0.00000000  0.05714506       0.083
   0.00000000  0.00000000  0.11429013       0.042
   0.04985712  0.00000000  0.11429013       0.083
   0.09971424  0.00000000  0.11429013       0.083
   0.14957136  0.00000000  0.11429013       0.042
 
 k-points in reciprocal lattice and weights: Automatic mesh                          
   0.00000000  0.00000000  0.00000000       0.042
   0.16666667  0.00000000  0.00000000       0.083
   0.33333333  0.00000000  0.00000000       0.083
   0.50000000  0.00000000  0.00000000       0.042
   0.00000000  0.00000000  0.25000000       0.083
   0.16666667  0.00000000  0.25000000       0.167
   0.33333333  0.00000000  0.25000000       0.167
   0.50000000  0.00000000  0.25000000       0.083
   0.00000000  0.00000000  0.50000000       0.042
   0.16666667  0.00000000  0.50000000       0.083
   0.33333333  0.00000000  0.50000000       0.083
   0.50000000  0.00000000  0.50000000       0.042
 
 position of ions in fractional coordinates (direct lattice) 
   0.00000000  0.30672600  0.91892400
   0.50000000  0.30672600  0.58107600
   0.00000000  0.37246700  0.08107600
   0.50000000  0.37246700  0.41892400
   0.50000000  0.46712900  0.91892400
   0.00000000  0.46712900  0.58107600
   0.50000000  0.53287100  0.08107600
   0.00000000  0.53287100  0.41892400
   0.00000000  0.62753300  0.91892400
   0.50000000  0.62753300  0.58107600
   0.00000000  0.69327400  0.08107600
   0.50000000  0.69327400  0.41892400
 
 position of ions in cartesian coordinates  (Angst):
   0.00000000 10.00000650  4.02013720
   1.67144300 10.00000650  2.54210930
   0.00000000 12.14332147  0.35469380
   1.67144300 12.14332147  1.83272170
   1.67144300 15.22953071  4.02013720
   0.00000000 15.22953071  2.54210930
   1.67144300 17.37287829  0.35469380
   0.00000000 17.37287829  1.83272170
   0.00000000 20.45908753  4.02013720
   1.67144300 20.45908753  2.54210930
   0.00000000 22.60240250  0.35469380
   1.67144300 22.60240250  1.83272170
 


--------------------------------------------------------------------------------------------------------


 k-point  1 :   0.0000 0.0000 0.0000  plane waves:   10373
 k-point  2 :   0.1667 0.0000 0.0000  plane waves:   10381
 k-point  3 :   0.3333 0.0000 0.0000  plane waves:   10340
 k-point  4 :   0.5000 0.0000 0.0000  plane waves:   10356
 k-point  5 :   0.0000 0.0000 0.2500  plane waves:   10351
 k-point  6 :   0.1667 0.0000 0.2500  plane waves:   10317
 k-point  7 :   0.3333 0.0000 0.2500  plane waves:   10342
 k-point  8 :   0.5000 0.0000 0.2500  plane waves:   10342
 k-point  9 :   0.0000 0.0000 0.5000  plane waves:   10272
 k-point 10 :   0.1667 0.0000 0.5000  plane waves:   10282
 k-point 11 :   0.3333 0.0000 0.5000  plane waves:   10312
 k-point 12 :   0.5000 0.0000 0.5000  plane waves:   10364

 maximum and minimum number of plane-waves per node :      1327     1270

 maximum number of plane-waves:     10381
 maximum index in each direction: 
   IXMAX=    5   IYMAX=   56   IZMAX=    7
   IXMIN=   -6   IYMIN=  -56   IZMIN=   -8


 parallel 3D FFT for wavefunctions:
    minimum data exchange during FFTs selected (reduces bandwidth)
 parallel 3D FFT for charge:
    minimum data exchange during FFTs selected (reduces bandwidth)


 total amount of memory used by VASP MPI-rank0    37479. kBytes
=======================================================================

   base      :      30000. kBytes
   nonl-proj :       1248. kBytes
   fftplans  :       1467. kBytes
   grid      :       2232. kBytes
   one-center:          6. kBytes
   wavefun   :       2526. kBytes
 
     INWAV:  cpu time    0.0000: real time    0.0000
 Broyden mixing: mesh for mixing (old mesh)
   NGX = 11   NGY =113   NGZ = 15
  (NGX  = 36   NGY  =360   NGZ  = 48)
  gives a total of  18645 points

 initial charge density was supplied:
 charge density of overlapping atoms calculated
 number of electron      60.0000000 magnetization 
 keeping initial charge density in first step


--------------------------------------------------------------------------------------------------------


 Maximum index for augmentation-charges          651 (set IRDMAX)


--------------------------------------------------------------------------------------------------------


 First call to EWALD:  gamma=   0.227
 Maximum number of real-space cells 6x 1x 5
 Maximum number of reciprocal cells 1x10x 2

    FEWALD:  cpu time    0.0018: real time    0.0019


--------------------------------------- Iteration      1(   1)  ---------------------------------------


    POTLOK:  cpu time    0.0313: real time    0.0434
    SETDIJ:  cpu time    0.0658: real time    0.0658
     EDDAV:  cpu time    0.5436: real time    0.5452
       DOS:  cpu time    0.0006: real time    0.0006
    --------------------------------------------
      LOOP:  cpu time    0.6413: real time    0.6550

 eigenvalue-minimisations  :   960
 total energy-change (2. order) : 0.3553582E+03  (-0.2052825E+04)
 number of electron      60.0000000 magnetization 
 augmentation part       60.0000000 magnetization 

 Free energy of the ion-electron system (eV)
  ---------------------------------------------------
  alpha Z        PSCENC =        30.28014394
  Ewald energy   TEWEN  =     14973.24208224
  -Hartree energ DENC   =    -16928.93300519
  -exchange      EXHF   =         0.00000000
  -V(xc)+E(xc)   XCENC  =        40.33409660
  PAW double counting   =      1677.12035881    -1579.18296132
  entropy T*S    EENTRO =        -0.00063864
  eigenvalues    EBANDS =        30.00437984
  atomic energy  EATOM  =      2112.49373795
  Solvation  Ediel_sol  =         0.00000000
  ---------------------------------------------------
  free energy    TOTEN  =       355.35819423 eV

  energy without entropy =      355.35883287  energy(sigma->0) =      355.35851355


--------------------------------------------------------------------------------------------------------




--------------------------------------- Iteration      1(   2)  ---------------------------------------


     EDDAV:  cpu time    0.6733: real time    0.6759
       DOS:  cpu time    0.0004: real time    0.0004
    --------------------------------------------
      LOOP:  cpu time    0.6737: real time    0.6763

 eigenvalue-minimisations  :  1344
 total energy-change (2. order) :-0.3804829E+03  (-0.3682500E+03)
 number of electron      60.0000000 magnetization 
 augmentation part       60.0000000 magnetization 

 Free energy of the ion-electron system (eV)
  ---------------------------------------------------
  alpha Z        PSCENC =        30.28014394
  Ewald energy   TEWEN  =     14973.24208224
  -Hartree energ DENC   =    -16928.93300519
  -exchange      EXHF   =         0.00000000
  -V(xc)+E(xc)   XCENC  =        40.33409660
  PAW double counting   =      1677.12035881    -1579.18296132
  entropy T*S    EENTRO =        -0.00000000
  eigenvalues    EBANDS =      -350.47915901
  atomic energy  EATOM  =      2112.49373795
  Solvation  Ediel_sol  =         0.00000000
  ---------------------------------------------------
  free energy    TOTEN  =       -25.12470598 eV

  energy without entropy =      -25.12470598  energy(sigma->0) =      -25.12470598


--------------------------------------------------------------------------------------------------------




--------------------------------------- Iteration      1(   3)  ---------------------------------------


     EDDAV:  cpu time    0.6166: real time    0.6175
       DOS:  cpu time    0.0004: real time    0.0004
    --------------------------------------------
      LOOP:  cpu time    0.6170: real time    0.6179

 eigenvalue-minimisations  :  1144
 total energy-change (2. order) :-0.3826867E+02  (-0.3759399E+02)
 number of electron      60.0000000 magnetization 
 augmentation part       60.0000000 magnetization 

 Free energy of the ion-electron system (eV)
  ---------------------------------------------------
  alpha Z        PSCENC =        30.28014394
  Ewald energy   TEWEN  =     14973.24208224
  -Hartree energ DENC   =    -16928.93300519
  -exchange      EXHF   =         0.00000000
  -V(xc)+E(xc)   XCENC  =        40.33409660
  PAW double counting   =      1677.12035881    -1579.18296132
  entropy T*S    EENTRO =        -0.00000000
  eigenvalues    EBANDS =      -388.74782944
  atomic energy  EATOM  =      2112.49373795
  Solvation  Ediel_sol  =         0.00000000
  ---------------------------------------------------
  free energy    TOTEN  =       -63.39337641 eV

  energy without entropy =      -63.39337641  energy(sigma->0) =      -63.39337641


--------------------------------------------------------------------------------------------------------




--------------------------------------- Iteration      1(   4)  ---------------------------------------


     EDDAV:  cpu time    0.6956: real time    0.6977
       DOS:  cpu time    0.0004: real time    0.0004
    --------------------------------------------
      LOOP:  cpu time    0.6960: real time    0.6981

 eigenvalue-minimisations  :  1384
 total energy-change (2. order) :-0.1376758E+01  (-0.1367089E+01)
 number of electron      60.0000000 magnetization 
 augmentation part       60.0000000 magnetization 

 Free energy of the ion-electron system (eV)
  ---------------------------------------------------
  alpha Z        PSCENC =        30.28014394
  Ewald energy   TEWEN  =     14973.24208224
  -Hartree energ DENC   =    -16928.93300519
  -exchange      EXHF   =         0.00000000
  -V(xc)+E(xc)   XCENC  =        40.33409660
  PAW double counting   =      1677.12035881    -1579.18296132
  entropy T*S    EENTRO =        -0.00000000
  eigenvalues    EBANDS =      -390.12458783
  atomic energy  EATOM  =      2112.49373795
  Solvation  Ediel_sol  =         0.00000000
  ---------------------------------------------------
  free energy    TOTEN  =       -64.77013480 eV

  energy without entropy =      -64.77013480  energy(sigma->0) =      -64.77013480


--------------------------------------------------------------------------------------------------------




--------------------------------------- Iteration      1(   5)  ---------------------------------------


     EDDAV:  cpu time    0.7298: real time    0.7323
       DOS:  cpu time    0.0004: real time    0.0004
    CHARGE:  cpu time    0.0357: real time    0.0357
    MIXING:  cpu time    0.0007: real time    0.0008
    --------------------------------------------
      LOOP:  cpu time    0.7667: real time    0.7692

 eigenvalue-minimisations  :  1448
 total energy-change (2. order) :-0.4143339E-01  (-0.4138990E-01)
 number of electron      59.9999987 magnetization 
 augmentation part       -6.5204101 magnetization 

 Broyden mixing:
  rms(total) = 0.17534E+01    rms(broyden)= 0.17533E+01
  rms(prec ) = 0.17588E+01
  weight for this iteration     100.00

 Free energy of the ion-electron system (eV)
  ---------------------------------------------------
  alpha Z        PSCENC =        30.28014394
  Ewald energy   TEWEN  =     14973.24208224
  -Hartree energ DENC   =    -16928.93300519
  -exchange      EXHF   =         0.00000000
  -V(xc)+E(xc)   XCENC  =        40.33409660
  PAW double counting   =      1677.12035881    -1579.18296132
  entropy T*S    EENTRO =        -0.00000000
  eigenvalues    EBANDS =      -390.16602122
  atomic energy  EATOM  =      2112.49373795
  Solvation  Ediel_sol  =         0.00000000
  ---------------------------------------------------
  free energy    TOTEN  =       -64.81156819 eV

  energy without entropy =      -64.81156819  energy(sigma->0) =      -64.81156819


--------------------------------------------------------------------------------------------------------




--------------------------------------- Iteration      1(   6)  ---------------------------------------


    POTLOK:  cpu time    0.0194: real time    0.0210
    SETDIJ:  cpu time    0.0660: real time    0.0660
     EDDAV:  cpu time    0.6383: real time    0.6391
       DOS:  cpu time    0.0004: real time    0.0004
    CHARGE:  cpu time    0.0340: real time    0.0340
    MIXING:  cpu time    0.0008: real time    0.0008
    --------------------------------------------
      LOOP:  cpu time    0.7588: real time    0.7612

 eigenvalue-minimisations  :  1248
 total energy-change (2. order) : 0.3246028E+00  (-0.1987302E-01)
 number of electron      59.9999987 magnetization 
 augmentation part       -6.4821941 magnetization 

 Broyden mixing:
  rms(total) = 0.10402E+01    rms(broyden)= 0.10402E+01
  rms(prec ) = 0.10434E+01
  weight for this iteration     100.00

 eigenvalues of (default mixing * dielectric matrix)
  average eigenvalue GAMMA=   2.4504
  2.4504

 Free energy of the ion-electron system (eV)
  ---------------------------------------------------
  alpha Z        PSCENC =        30.28014394
  Ewald energy   TEWEN  =     14973.24208224
  -Hartree energ DENC   =    -16941.12524147
  -exchange      EXHF   =         0.00000000
  -V(xc)+E(xc)   XCENC  =        41.37625006
  PAW double counting   =      3131.43556560    -3033.96081036
  entropy T*S    EENTRO =        -0.00000000
  eigenvalues    EBANDS =      -378.22869330
  atomic energy  EATOM  =      2112.49373795
  Solvation  Ediel_sol  =         0.00000000
  ---------------------------------------------------
  free energy    TOTEN  =       -64.48696535 eV

  energy without entropy =      -64.48696535  energy(sigma->0) =      -64.48696535


--------------------------------------------------------------------------------------------------------




--------------------------------------- Iteration      1(   7)  ---------------------------------------


    POTLOK:  cpu time    0.0188: real time    0.0206
    SETDIJ:  cpu time    0.0660: real time    0.0660
     EDDAV:  cpu time    0.6113: real time    0.6125
       DOS:  cpu time    0.0005: real time    0.0005
    CHARGE:  cpu time    0.0339: real time    0.0339
    MIXING:  cpu time    0.0007: real time    0.0007
    --------------------------------------------
      LOOP:  cpu time    0.7312: real time    0.7341

 eigenvalue-minimisations  :  1184
 total energy-change (2. order) : 0.1485893E+00  (-0.3611265E-01)
 number of electron      59.9999987 magnetization 
 augmentation part       -6.4356635 magnetization 

 Broyden mixing:
  rms(total) = 0.43660E-01    rms(broyden)= 0.43659E-01
  rms(prec ) = 0.44983E-01
  weight for this iteration     100.00

 eigenvalues of (default mixing * dielectric matrix)
  average eigenvalue GAMMA=   2.0556
  1.5836  2.5276

 Free energy of the ion-electron system (eV)
  ---------------------------------------------------
  alpha Z        PSCENC =        30.28014394
  Ewald energy   TEWEN  =     14973.24208224
  -Hartree energ DENC   =    -16959.84564300
  -exchange      EXHF   =         0.00000000
  -V(xc)+E(xc)   XCENC  =        43.06674391
  PAW double counting   =      6243.62996991    -6146.72196160
  entropy T*S    EENTRO =        -0.00000026
  eigenvalues    EBANDS =      -360.48344916
  atomic energy  EATOM  =      2112.49373795
  Solvation  Ediel_sol  =         0.00000000
  ---------------------------------------------------
  free energy    TOTEN  =       -64.33837606 eV

  energy without entropy =      -64.33837581  energy(sigma->0) =      -64.33837593


--------------------------------------------------------------------------------------------------------




--------------------------------------- Iteration      1(   8)  ---------------------------------------


    POTLOK:  cpu time    0.0190: real time    0.0204
    SETDIJ:  cpu time    0.0660: real time    0.0660
     EDDAV:  cpu time    0.6376: real time    0.6384
       DOS:  cpu time    0.0005: real time    0.0005
    CHARGE:  cpu time    0.0342: real time    0.0342
    MIXING:  cpu time    0.0007: real time    0.0007
    --------------------------------------------
      LOOP:  cpu time    0.7579: real time    0.7601

 eigenvalue-minimisations  :  1240
 total energy-change (2. order) : 0.2844550E-03  (-0.3182805E-02)
 number of electron      59.9999987 magnetization 
 augmentation part       -6.4459792 magnetization 

 Broyden mixing:
  rms(total) = 0.23140E-01    rms(broyden)= 0.23140E-01
  rms(prec ) = 0.23829E-01
  weight for this iteration     100.00

 eigenvalues of (default mixing * dielectric matrix)
  average eigenvalue GAMMA=   1.6107
  2.5257  1.1532  1.1532

 Free energy of the ion-electron system (eV)
  ---------------------------------------------------
  alpha Z        PSCENC =        30.28014394
  Ewald energy   TEWEN  =     14973.24208224
  -Hartree energ DENC   =    -16961.04008240
  -exchange      EXHF   =         0.00000000
  -V(xc)+E(xc)   XCENC  =        43.09621565
  PAW double counting   =      6347.61272934    -6250.63164154
  entropy T*S    EENTRO =        -0.00000006
  eigenvalues    EBANDS =      -359.39127671
  atomic energy  EATOM  =      2112.49373795
  Solvation  Ediel_sol  =         0.00000000
  ---------------------------------------------------
  free energy    TOTEN  =       -64.33809161 eV

  energy without entropy =      -64.33809154  energy(sigma->0) =      -64.33809158


--------------------------------------------------------------------------------------------------------




--------------------------------------- Iteration      1(   9)  ---------------------------------------


    POTLOK:  cpu time    0.0189: real time    0.0204
    SETDIJ:  cpu time    0.0661: real time    0.0661
     EDDAV:  cpu time    0.7106: real time    0.7115
       DOS:  cpu time    0.0005: real time    0.0005
    CHARGE:  cpu time    0.0343: real time    0.0343
    MIXING:  cpu time    0.0007: real time    0.0007
    --------------------------------------------
      LOOP:  cpu time    0.8312: real time    0.8336

 eigenvalue-minimisations  :  1432
 total energy-change (2. order) : 0.3534624E-04  (-0.1745783E-03)
 number of electron      59.9999987 magnetization 
 augmentation part       -6.4462869 magnetization 

 Broyden mixing:
  rms(total) = 0.19331E-01    rms(broyden)= 0.19331E-01
  rms(prec ) = 0.19922E-01
  weight for this iteration     100.00

 eigenvalues of (default mixing * dielectric matrix)
  average eigenvalue GAMMA=   1.8443
  2.2823  2.2823  1.4063  1.4063

 Free energy of the ion-electron system (eV)
  ---------------------------------------------------
  alpha Z        PSCENC =        30.28014394
  Ewald energy   TEWEN  =     14973.24208224
  -Hartree energ DENC   =    -16961.85286873
  -exchange      EXHF   =         0.00000000
  -V(xc)+E(xc)   XCENC  =        43.10567476
  PAW double counting   =      6347.85574569    -6250.86763643
  entropy T*S    EENTRO =        -0.00000006
  eigenvalues    EBANDS =      -358.59493561
  atomic energy  EATOM  =      2112.49373795
  Solvation  Ediel_sol  =         0.00000000
  ---------------------------------------------------
  free energy    TOTEN  =       -64.33805626 eV

  energy without entropy =      -64.33805620  energy(sigma->0) =      -64.33805623


--------------------------------------------------------------------------------------------------------




--------------------------------------- Iteration      1(  10)  ---------------------------------------


    POTLOK:  cpu time    0.0191: real time    0.0207
    SETDIJ:  cpu time    0.0660: real time    0.0660
     EDDAV:  cpu time    0.6109: real time    0.6118
       DOS:  cpu time    0.0005: real time    0.0005
    CHARGE:  cpu time    0.0341: real time    0.0341
    MIXING:  cpu time    0.0007: real time    0.0007
    --------------------------------------------
      LOOP:  cpu time    0.7313: real time    0.7337

 eigenvalue-minimisations  :  1184
 total energy-change (2. order) : 0.2475182E-03  (-0.3726908E-04)
 number of electron      59.9999987 magnetization 
 augmentation part       -6.4475245 magnetization 

 Broyden mixing:
  rms(total) = 0.14114E-01    rms(broyden)= 0.14114E-01
  rms(prec ) = 0.14602E-01
  weight for this iteration     100.00

 eigenvalues of (default mixing * dielectric matrix)
  average eigenvalue GAMMA=   1.7748
  2.5347  2.5347  1.5506  1.1270  1.1270

 Free energy of the ion-electron system (eV)
  ---------------------------------------------------
  alpha Z        PSCENC =        30.28014394
  Ewald energy   TEWEN  =     14973.24208224
  -Hartree energ DENC   =    -16962.87129616
  -exchange      EXHF   =         0.00000000
  -V(xc)+E(xc)   XCENC  =        43.09032110
  PAW double counting   =      6275.27432070    -6178.26224155
  entropy T*S    EENTRO =        -0.00000004
  eigenvalues    EBANDS =      -357.58487693
  atomic energy  EATOM  =      2112.49373795
  Solvation  Ediel_sol  =         0.00000000
  ---------------------------------------------------
  free energy    TOTEN  =       -64.33780874 eV

  energy without entropy =      -64.33780871  energy(sigma->0) =      -64.33780873


--------------------------------------------------------------------------------------------------------




--------------------------------------- Iteration      1(  11)  ---------------------------------------


    POTLOK:  cpu time    0.0191: real time    0.0208
    SETDIJ:  cpu time    0.0662: real time    0.0662
     EDDAV:  cpu time    0.6330: real time    0.6338
       DOS:  cpu time    0.0005: real time    0.0005
    CHARGE:  cpu time    0.0364: real time    0.0364
    MIXING:  cpu time    0.0007: real time    0.0007
    --------------------------------------------
      LOOP:  cpu time    0.7559: real time    0.7584

 eigenvalue-minimisations  :  1232
 total energy-change (2. order) : 0.2474426E-03  (-0.3908359E-04)
 number of electron      59.9999987 magnetization 
 augmentation part       -6.4471505 magnetization 

 Broyden mixing:
  rms(total) = 0.44429E-02    rms(broyden)= 0.44429E-02
  rms(prec ) = 0.50003E-02
  weight for this iteration     100.00

 eigenvalues of (default mixing * dielectric matrix)
  average eigenvalue GAMMA=   1.6439
  2.5595  2.5595  1.4282  1.0373  1.1396  1.1396

 Free energy of the ion-electron system (eV)
  ---------------------------------------------------
  alpha Z        PSCENC =        30.28014394
  Ewald energy   TEWEN  =     14973.24208224
  -Hartree energ DENC   =    -16964.76853131
  -exchange      EXHF   =         0.00000000
  -V(xc)+E(xc)   XCENC  =        43.12131746
  PAW double counting   =      6294.25097098    -6197.23304655
  entropy T*S    EENTRO =        -0.00000005
  eigenvalues    EBANDS =      -355.72423597
  atomic energy  EATOM  =      2112.49373795
  Solvation  Ediel_sol  =         0.00000000
  ---------------------------------------------------
  free energy    TOTEN  =       -64.33756130 eV

  energy without entropy =      -64.33756125  energy(sigma->0) =      -64.33756128


--------------------------------------------------------------------------------------------------------




--------------------------------------- Iteration      1(  12)  ---------------------------------------


    POTLOK:  cpu time    0.0191: real time    0.0212
    SETDIJ:  cpu time    0.0662: real time    0.0662
     EDDAV:  cpu time    0.6363: real time    0.6373
       DOS:  cpu time    0.0005: real time    0.0005
    CHARGE:  cpu time    0.0342: real time    0.0341
    MIXING:  cpu time    0.0008: real time    0.0008
    --------------------------------------------
      LOOP:  cpu time    0.7571: real time    0.7601

 eigenvalue-minimisations  :  1200
 total energy-change (2. order) :-0.7811657E-04  (-0.5310427E-05)
 number of electron      59.9999987 magnetization 
 augmentation part       -6.4471003 magnetization 

 Broyden mixing:
  rms(total) = 0.15800E-02    rms(broyden)= 0.15800E-02
  rms(prec ) = 0.23985E-02
  weight for this iteration     100.00

 eigenvalues of (default mixing * dielectric matrix)
  average eigenvalue GAMMA=   1.7751
  2.9848  2.5096  1.6840  1.6840  1.2851  1.1390  1.1390

 Free energy of the ion-electron system (eV)
  ---------------------------------------------------
  alpha Z        PSCENC =        30.28014394
  Ewald energy   TEWEN  =     14973.24208224
  -Hartree energ DENC   =    -16965.45417121
  -exchange      EXHF   =         0.00000000
  -V(xc)+E(xc)   XCENC  =        43.12645142
  PAW double counting   =      6299.31619351    -6202.29838342
  entropy T*S    EENTRO =        -0.00000005
  eigenvalues    EBANDS =      -355.04369380
  atomic energy  EATOM  =      2112.49373795
  Solvation  Ediel_sol  =         0.00000000
  ---------------------------------------------------
  free energy    TOTEN  =       -64.33763942 eV

  energy without entropy =      -64.33763936  energy(sigma->0) =      -64.33763939


--------------------------------------------------------------------------------------------------------




--------------------------------------- Iteration      1(  13)  ---------------------------------------


    POTLOK:  cpu time    0.0193: real time    0.0207
    SETDIJ:  cpu time    0.0662: real time    0.0662
     EDDAV:  cpu time    0.5919: real time    0.5926
       DOS:  cpu time    0.0005: real time    0.0005
    CHARGE:  cpu time    0.0339: real time    0.0339
    MIXING:  cpu time    0.0008: real time    0.0008
    --------------------------------------------
      LOOP:  cpu time    0.7127: real time    0.7147

 eigenvalue-minimisations  :  1120
 total energy-change (2. order) :-0.2334811E-03  (-0.8432040E-05)
 number of electron      59.9999987 magnetization 
 augmentation part       -6.4468408 magnetization 

 Broyden mixing:
  rms(total) = 0.31981E-02    rms(broyden)= 0.31981E-02
  rms(prec ) = 0.33372E-02
  weight for this iteration     100.00

 eigenvalues of (default mixing * dielectric matrix)
  average eigenvalue GAMMA=   1.8088
  3.6827  2.4871  2.3192  1.6655  1.1336  1.1336  1.0243  1.0243

 Free energy of the ion-electron system (eV)
  ---------------------------------------------------
  alpha Z        PSCENC =        30.28014394
  Ewald energy   TEWEN  =     14973.24208224
  -Hartree energ DENC   =    -16966.80870171
  -exchange      EXHF   =         0.00000000
  -V(xc)+E(xc)   XCENC  =        43.13717783
  PAW double counting   =      6306.36751145    -6209.34947521
  entropy T*S    EENTRO =        -0.00000006
  eigenvalues    EBANDS =      -353.70034933
  atomic energy  EATOM  =      2112.49373795
  Solvation  Ediel_sol  =         0.00000000
  ---------------------------------------------------
  free energy    TOTEN  =       -64.33787290 eV

  energy without entropy =      -64.33787284  energy(sigma->0) =      -64.33787287


--------------------------------------------------------------------------------------------------------




--------------------------------------- Iteration      1(  14)  ---------------------------------------


    POTLOK:  cpu time    0.0193: real time    0.0210
    SETDIJ:  cpu time    0.0661: real time    0.0662
     EDDAV:  cpu time    0.5511: real time    0.5518
       DOS:  cpu time    0.0005: real time    0.0005
    CHARGE:  cpu time    0.0342: real time    0.0342
    MIXING:  cpu time    0.0008: real time    0.0008
    --------------------------------------------
      LOOP:  cpu time    0.6719: real time    0.6745

 eigenvalue-minimisations  :  1008
 total energy-change (2. order) :-0.1426114E-03  (-0.2525114E-05)
 number of electron      59.9999987 magnetization 
 augmentation part       -6.4467126 magnetization 

 Broyden mixing:
  rms(total) = 0.29431E-02    rms(broyden)= 0.29431E-02
  rms(prec ) = 0.30106E-02
  weight for this iteration     100.00

 eigenvalues of (default mixing * dielectric matrix)
  average eigenvalue GAMMA=   1.6264
  3.5631  2.3935  2.3935  1.6821  1.1594  1.1594  1.0160  1.0160  0.2540

 Free energy of the ion-electron system (eV)
  ---------------------------------------------------
  alpha Z        PSCENC =        30.28014394
  Ewald energy   TEWEN  =     14973.24208224
  -Hartree energ DENC   =    -16967.34953906
  -exchange      EXHF   =         0.00000000
  -V(xc)+E(xc)   XCENC  =        43.13925500
  PAW double counting   =      6304.30114394    -6207.28323641
  entropy T*S    EENTRO =        -0.00000007
  eigenvalues    EBANDS =      -353.16160304
  atomic energy  EATOM  =      2112.49373795
  Solvation  Ediel_sol  =         0.00000000
  ---------------------------------------------------
  free energy    TOTEN  =       -64.33801551 eV

  energy without entropy =      -64.33801544  energy(sigma->0) =      -64.33801548


--------------------------------------------------------------------------------------------------------




--------------------------------------- Iteration      1(  15)  ---------------------------------------


    POTLOK:  cpu time    0.0192: real time    0.0206
    SETDIJ:  cpu time    0.0662: real time    0.0662
     EDDAV:  cpu time    0.4704: real time    0.4712
       DOS:  cpu time    0.0005: real time    0.0005
    CHARGE:  cpu time    0.0341: real time    0.0341
    MIXING:  cpu time    0.0009: real time    0.0009
    --------------------------------------------
      LOOP:  cpu time    0.5912: real time    0.5935

 eigenvalue-minimisations  :   768
 total energy-change (2. order) :-0.3355190E-04  (-0.2250274E-06)
 number of electron      59.9999987 magnetization 
 augmentation part       -6.4467310 magnetization 

 Broyden mixing:
  rms(total) = 0.20106E-02    rms(broyden)= 0.20106E-02
  rms(prec ) = 0.20978E-02
  weight for this iteration     100.00

 eigenvalues of (default mixing * dielectric matrix)
  average eigenvalue GAMMA=   2.0329
  5.7070  2.7785  2.4372  1.7814  1.7814  1.4138  1.4138  1.1193  0.9484  0.9484

 Free energy of the ion-electron system (eV)
  ---------------------------------------------------
  alpha Z        PSCENC =        30.28014394
  Ewald energy   TEWEN  =     14973.24208224
  -Hartree energ DENC   =    -16967.37504336
  -exchange      EXHF   =         0.00000000
  -V(xc)+E(xc)   XCENC  =        43.13873330
  PAW double counting   =      6302.73684105    -6205.71893223
  entropy T*S    EENTRO =        -0.00000007
  eigenvalues    EBANDS =      -353.13561188
  atomic energy  EATOM  =      2112.49373795
  Solvation  Ediel_sol  =         0.00000000
  ---------------------------------------------------
  free energy    TOTEN  =       -64.33804906 eV

  energy without entropy =      -64.33804900  energy(sigma->0) =      -64.33804903


--------------------------------------------------------------------------------------------------------




--------------------------------------- Iteration      1(  16)  ---------------------------------------


    POTLOK:  cpu time    0.0195: real time    0.0209
    SETDIJ:  cpu time    0.0661: real time    0.0661
     EDDAV:  cpu time    0.5284: real time    0.5299
       DOS:  cpu time    0.0005: real time    0.0005
    CHARGE:  cpu time    0.0341: real time    0.0341
    MIXING:  cpu time    0.0010: real time    0.0010
    --------------------------------------------
      LOOP:  cpu time    0.6496: real time    0.6526

 eigenvalue-minimisations  :   952
 total energy-change (2. order) :-0.2316483E-03  (-0.2505954E-05)
 number of electron      59.9999987 magnetization 
 augmentation part       -6.4466596 magnetization 

 Broyden mixing:
  rms(total) = 0.17259E-02    rms(broyden)= 0.17259E-02
  rms(prec ) = 0.17357E-02
  weight for this iteration     100.00

 eigenvalues of (default mixing * dielectric matrix)
  average eigenvalue GAMMA=   1.9927
  6.5763  2.7578  2.3469  1.9495  1.9495  1.3203  1.3203  1.0938  0.8694  0.8677
  0.8677

 Free energy of the ion-electron system (eV)
  ---------------------------------------------------
  alpha Z        PSCENC =        30.28014394
  Ewald energy   TEWEN  =     14973.24208224
  -Hartree energ DENC   =    -16968.07656948
  -exchange      EXHF   =         0.00000000
  -V(xc)+E(xc)   XCENC  =        43.13904591
  PAW double counting   =      6295.97844192    -6198.96022198
  entropy T*S    EENTRO =        -0.00000007
  eigenvalues    EBANDS =      -352.43494114
  atomic energy  EATOM  =      2112.49373795
  Solvation  Ediel_sol  =         0.00000000
  ---------------------------------------------------
  free energy    TOTEN  =       -64.33828071 eV

  energy without entropy =      -64.33828064  energy(sigma->0) =      -64.33828068


--------------------------------------------------------------------------------------------------------




--------------------------------------- Iteration      1(  17)  ---------------------------------------


    POTLOK:  cpu time    0.0209: real time    0.0210
    SETDIJ:  cpu time    0.0661: real time    0.0661
     EDDAV:  cpu time    0.4759: real time    0.4765
       DOS:  cpu time    0.0005: real time    0.0005
    CHARGE:  cpu time    0.0346: real time    0.0346
    MIXING:  cpu time    0.0010: real time    0.0010
    --------------------------------------------
      LOOP:  cpu time    0.5990: real time    0.5998

 eigenvalue-minimisations  :   800
 total energy-change (2. order) :-0.2067693E-04  (-0.1976004E-06)
 number of electron      59.9999987 magnetization 
 augmentation part       -6.4466767 magnetization 

 Broyden mixing:
  rms(total) = 0.14489E-02    rms(broyden)= 0.14489E-02
  rms(prec ) = 0.14554E-02
  weight for this iteration     100.00

 eigenvalues of (default mixing * dielectric matrix)
  average eigenvalue GAMMA=   1.8550
  6.5707  2.7131  2.2876  2.0814  1.7929  1.2725  1.2725  1.1606  0.8006  0.8006
  0.8149  0.6925

 Free energy of the ion-electron system (eV)
  ---------------------------------------------------
  alpha Z        PSCENC =        30.28014394
  Ewald energy   TEWEN  =     14973.24208224
  -Hartree energ DENC   =    -16968.15882107
  -exchange      EXHF   =         0.00000000
  -V(xc)+E(xc)   XCENC  =        43.13907516
  PAW double counting   =      6296.20145454    -6199.18303836
  entropy T*S    EENTRO =        -0.00000007
  eigenvalues    EBANDS =      -352.35293571
  atomic energy  EATOM  =      2112.49373795
  Solvation  Ediel_sol  =         0.00000000
  ---------------------------------------------------
  free energy    TOTEN  =       -64.33830139 eV

  energy without entropy =      -64.33830132  energy(sigma->0) =      -64.33830135


--------------------------------------------------------------------------------------------------------




--------------------------------------- Iteration      1(  18)  ---------------------------------------


    POTLOK:  cpu time    0.0213: real time    0.0214
    SETDIJ:  cpu time    0.0661: real time    0.0661
     EDDAV:  cpu time    0.4460: real time    0.4468
       DOS:  cpu time    0.0005: real time    0.0005
    --------------------------------------------
      LOOP:  cpu time    0.6182: real time    0.6192

 eigenvalue-minimisations  :   720
 total energy-change (2. order) :-0.9217519E-05  (-0.4470381E-07)
 number of electron      59.9999987 magnetization 
 augmentation part       -6.4466767 magnetization 

 Free energy of the ion-electron system (eV)
  ---------------------------------------------------
  alpha Z        PSCENC =        30.28014394
  Ewald energy   TEWEN  =     14973.24208224
  -Hartree energ DENC   =    -16968.16803648
  -exchange      EXHF   =         0.00000000
  -V(xc)+E(xc)   XCENC  =        43.13917193
  PAW double counting   =      6296.97865344    -6199.96018492
  entropy T*S    EENTRO =        -0.00000007
  eigenvalues    EBANDS =      -352.34387863
  atomic energy  EATOM  =      2112.49373795
  Solvation  Ediel_sol  =         0.00000000
  ---------------------------------------------------
  free energy    TOTEN  =       -64.33831061 eV

  energy without entropy =      -64.33831054  energy(sigma->0) =      -64.33831057


--------------------------------------------------------------------------------------------------------




 the core state eigenenergies are
   1-  1s  -2078.3871  2s   -168.4190  2p   -118.9045
   2-  1s  -2078.3871  2s   -168.4190  2p   -118.9045
   3-  1s  -2078.4457  2s   -168.4716  2p   -118.9577
   4-  1s  -2078.4457  2s   -168.4716  2p   -118.9577
   5-  1s  -2078.4768  2s   -168.5033  2p   -118.9894
   6-  1s  -2078.4768  2s   -168.5033  2p   -118.9894
   7-  1s  -2078.4768  2s   -168.5033  2p   -118.9894
   8-  1s  -2078.4768  2s   -168.5033  2p   -118.9894
   9-  1s  -2078.4457  2s   -168.4716  2p   -118.9577
  10-  1s  -2078.4457  2s   -168.4716  2p   -118.9577
  11-  1s  -2078.3871  2s   -168.4190  2p   -118.9045
  12-  1s  -2078.3871  2s   -168.4190  2p   -118.9045
 
 E-fermi :   0.9393     XC(G=0):  -5.1347     alpha+bet : -5.5572


 k-point     1 :       0.0000    0.0000    0.0000
  band No.  band energies     occupation 
      1     -14.8546      2.00000
      2     -14.7343      2.00000
      3     -14.6656      2.00000
      4     -12.3736      2.00000
      5     -12.1278      2.00000
      6     -11.9480      2.00000
      7      -8.6065      2.00000
      8      -8.5223      2.00000
      9      -8.4921      2.00000
     10      -5.9243      2.00000
     11      -5.5455      2.00000
     12      -5.1272      2.00000
     13      -4.5051      2.00000
     14      -4.5051      2.00000
     15      -4.1875      2.00000
     16      -4.1432      2.00000
     17      -3.9958      2.00000
     18      -3.9218      2.00000
     19      -3.3938      2.00000
     20      -3.2930      2.00000
     21      -3.2432      2.00000
     22      -1.8800      2.00000
     23      -1.7365      2.00000
     24      -1.6248      2.00000
     25      -1.5894      2.00000
     26      -1.5044      2.00000
     27      -1.1081      2.00000
     28      -0.2497      2.00000
     29       0.3542      2.00000
     30       0.9096      1.99997
     31       0.9690      0.00003
     32       1.4967      0.00000
     33       1.5225      0.00000
     34       1.6971      0.00000
     35       1.7047      0.00000
     36       1.8606      0.00000
     37       2.7298      0.00000
     38       2.9004      0.00000
     39       2.9712      0.00000
     40       3.6782      0.00000

 k-point     2 :       0.1667    0.0000    0.0000
  band No.  band energies     occupation 
      1     -14.5311      2.00000
      2     -14.4120      2.00000
      3     -14.3446      2.00000
      4     -12.0369      2.00000
      5     -11.7925      2.00000
      6     -11.6138      2.00000
      7      -8.8992      2.00000
      8      -8.8380      2.00000
      9      -8.8319      2.00000
     10      -5.6513      2.00000
     11      -5.2801      2.00000
     12      -4.9725      2.00000
     13      -4.8914      2.00000
     14      -4.8849      2.00000
     15      -4.8534      2.00000
     16      -4.4286      2.00000
     17      -4.3553      2.00000
     18      -4.3445      2.00000
     19      -4.2190      2.00000
     20      -3.8745      2.00000
     21      -3.7303      2.00000
     22      -2.6616      2.00000
     23      -2.5112      2.00000
     24      -2.3460      2.00000
     25      -1.7419      2.00000
     26      -1.4706      2.00000
     27      -0.9681      2.00000
     28      -0.2137      2.00000
     29       0.1867      2.00000
     30       0.4570      2.00000
     31       1.2523      0.00000
     32       1.6569      0.00000
     33       1.8813      0.00000
     34       2.3388      0.00000
     35       2.5508      0.00000
     36       2.5752      0.00000
     37       3.7496      0.00000
     38       3.8753      0.00000
     39       3.9799      0.00000
     40       4.2601      0.00000

 k-point     3 :       0.3333    0.0000    0.0000
  band No.  band energies     occupation 
      1     -13.5780      2.00000
      2     -13.4630      2.00000
      3     -13.4000      2.00000
      4     -11.0353      2.00000
      5     -10.7956      2.00000
      6     -10.6206      2.00000
      7     -10.2417      2.00000
      8     -10.1624      2.00000
      9     -10.1374      2.00000
     10      -7.2213      2.00000
     11      -7.0250      2.00000
     12      -6.8869      2.00000
     13      -4.9306      2.00000
     14      -4.9058      2.00000
     15      -4.8494      2.00000
     16      -4.8403      2.00000
     17      -4.6052      2.00000
     18      -4.3158      2.00000
     19      -3.4261      2.00000
     20      -3.1568      2.00000
     21      -3.0338      2.00000
     22      -2.6857      2.00000
     23      -2.3961      2.00000
     24      -2.1618      2.00000
     25      -1.7908      2.00000
     26      -1.5217      2.00000
     27      -1.1901      2.00000
     28      -0.8932      2.00000
     29      -0.7533      2.00000
     30      -0.6899      2.00000
     31       1.1110      0.00000
     32       1.1723      0.00000
     33       1.4341      0.00000
     34       2.0733      0.00000
     35       2.2849      0.00000
     36       2.6025      0.00000
     37       2.6457      0.00000
     38       2.6617      0.00000
     39       2.6691      0.00000
     40       2.9524      0.00000

 k-point     4 :       0.5000    0.0000    0.0000
  band No.  band energies     occupation 
      1     -12.0675      2.00000
      2     -12.0675      2.00000
      3     -11.9624      2.00000
      4     -11.9624      2.00000
      5     -11.9101      2.00000
      6     -11.9101      2.00000
      7      -9.3999      2.00000
      8      -9.3999      2.00000
      9      -9.1712      2.00000
     10      -9.1712      2.00000
     11      -9.0051      2.00000
     12      -9.0051      2.00000
     13      -4.4696      2.00000
     14      -4.4696      2.00000
     15      -4.3352      2.00000
     16      -4.3352      2.00000
     17      -4.2896      2.00000
     18      -4.2896      2.00000
     19      -2.4674      2.00000
     20      -2.4674      2.00000
     21      -2.3937      2.00000
     22      -2.3937      2.00000
     23      -2.3933      2.00000
     24      -2.3933      2.00000
     25      -2.0107      2.00000
     26      -2.0107      2.00000
     27      -1.7399      2.00000
     28      -1.7399      2.00000
     29      -1.4878      2.00000
     30      -1.4878      2.00000
     31       1.6190      0.00000
     32       1.6190      0.00000
     33       1.6316      0.00000
     34       1.6316      0.00000
     35       1.7135      0.00000
     36       1.7135      0.00000
     37       2.1549      0.00000
     38       2.1557      0.00000
     39       2.1917      0.00000
     40       2.1936      0.00000

 k-point     5 :       0.0000    0.0000    0.2500
  band No.  band energies     occupation 
      1     -14.5032      2.00000
      2     -14.3901      2.00000
      3     -14.3292      2.00000
      4     -12.5961      2.00000
      5     -12.4621      2.00000
      6     -12.4016      2.00000
      7      -9.0057      2.00000
      8      -8.8489      2.00000
      9      -8.7265      2.00000
     10      -6.9120      2.00000
     11      -6.6390      2.00000
     12      -6.4712      2.00000
     13      -4.5488      2.00000
     14      -4.0378      2.00000
     15      -3.3758      2.00000
     16      -3.1166      2.00000
     17      -3.0635      2.00000
     18      -3.0242      2.00000
     19      -2.9834      2.00000
     20      -2.7185      2.00000
     21      -2.7176      2.00000
     22      -1.8650      2.00000
     23      -1.7643      2.00000
     24      -1.7335      2.00000
     25      -1.7258      2.00000
     26      -1.0748      2.00000
     27      -0.4259      2.00000
     28      -0.2672      2.00000
     29      -0.2046      2.00000
     30      -0.0271      2.00000
     31       1.6793      0.00000
     32       2.0059      0.00000
     33       2.1138      0.00000
     34       2.2071      0.00000
     35       2.2571      0.00000
     36       2.2604      0.00000
     37       2.3680      0.00000
     38       2.7086      0.00000
     39       3.2520      0.00000
     40       3.3096      0.00000

 k-point     6 :       0.1667    0.0000    0.2500
  band No.  band energies     occupation 
      1     -14.1844      2.00000
      2     -14.0725      2.00000
      3     -14.0128      2.00000
      4     -12.2801      2.00000
      5     -12.1506      2.00000
      6     -12.0941      2.00000
      7      -9.0395      2.00000
      8      -8.8871      2.00000
      9      -8.7740      2.00000
     10      -6.7960      2.00000
     11      -6.5663      2.00000
     12      -6.4197      2.00000
     13      -4.9859      2.00000
     14      -4.8452      2.00000
     15      -4.7163      2.00000
     16      -4.5116      2.00000
     17      -4.0376      2.00000
     18      -3.7235      2.00000
     19      -3.3130      2.00000
     20      -3.1976      2.00000
     21      -2.9140      2.00000
     22      -2.3357      2.00000
     23      -2.1649      2.00000
     24      -2.1434      2.00000
     25      -1.4990      2.00000
     26      -0.9515      2.00000
     27      -0.8608      2.00000
     28      -0.7307      2.00000
     29      -0.4604      2.00000
     30      -0.4121      2.00000
     31       2.0277      0.00000
     32       2.3127      0.00000
     33       2.5880      0.00000
     34       2.8633      0.00000
     35       3.0137      0.00000
     36       3.0656      0.00000
     37       3.3735      0.00000
     38       3.4980      0.00000
     39       3.6080      0.00000
     40       4.3223      0.00000

 k-point     7 :       0.3333    0.0000    0.2500
  band No.  band energies     occupation 
      1     -13.2533      2.00000
      2     -13.1461      2.00000
      3     -13.0913      2.00000
      4     -11.4367      2.00000
      5     -11.3343      2.00000
      6     -11.3014      2.00000
      7      -9.7500      2.00000
      8      -9.5899      2.00000
      9      -9.4803      2.00000
     10      -7.5239      2.00000
     11      -7.4368      2.00000
     12      -7.4162      2.00000
     13      -5.8328      2.00000
     14      -5.6649      2.00000
     15      -5.5317      2.00000
     16      -4.7973      2.00000
     17      -4.7529      2.00000
     18      -4.6778      2.00000
     19      -3.3915      2.00000
     20      -3.3107      2.00000
     21      -3.1773      2.00000
     22      -2.5123      2.00000
     23      -2.3681      2.00000
     24      -2.3636      2.00000
     25      -2.2358      2.00000
     26      -1.8477      2.00000
     27      -1.3301      2.00000
     28      -0.9598      2.00000
     29      -0.6597      2.00000
     30      -0.6238      2.00000
     31       1.7036      0.00000
     32       1.8318      0.00000
     33       2.0267      0.00000
     34       2.5148      0.00000
     35       2.7052      0.00000
     36       2.9614      0.00000
     37       3.1525      0.00000
     38       3.3303      0.00000
     39       3.3723      0.00000
     40       3.8742      0.00000

 k-point     8 :       0.5000    0.0000    0.2500
  band No.  band energies     occupation 
      1     -11.8544      2.00000
      2     -11.8544      2.00000
      3     -11.7624      2.00000
      4     -11.7624      2.00000
      5     -11.7242      2.00000
      6     -11.7242      2.00000
      7      -9.4308      2.00000
      8      -9.4308      2.00000
      9      -9.2729      2.00000
     10      -9.2729      2.00000
     11      -9.1817      2.00000
     12      -9.1817      2.00000
     13      -5.0174      2.00000
     14      -5.0174      2.00000
     15      -4.8277      2.00000
     16      -4.8277      2.00000
     17      -4.6761      2.00000
     18      -4.6761      2.00000
     19      -3.6864      2.00000
     20      -3.6864      2.00000
     21      -3.4419      2.00000
     22      -3.4419      2.00000
     23      -3.3088      2.00000
     24      -3.3088      2.00000
     25      -1.5492      2.00000
     26      -1.5492      2.00000
     27      -1.2056      2.00000
     28      -1.2056      2.00000
     29      -0.9098      2.00000
     30      -0.9098      2.00000
     31       2.0053      0.00000
     32       2.0053      0.00000
     33       2.3083      0.00000
     34       2.3083      0.00000
     35       2.4551      0.00000
     36       2.4551      0.00000
     37       3.1799      0.00000
     38       3.1799      0.00000
     39       3.4039      0.00000
     40       3.4039      0.00000

 k-point     9 :       0.0000    0.0000    0.5000
  band No.  band energies     occupation 
      1     -13.5468      2.00000
      2     -13.5468      2.00000
      3     -13.4770      2.00000
      4     -13.4770      2.00000
      5     -13.4308      2.00000
      6     -13.4308      2.00000
      7      -8.5711      2.00000
      8      -8.5711      2.00000
      9      -8.2545      2.00000
     10      -8.2545      2.00000
     11      -7.9810      2.00000
     12      -7.9810      2.00000
     13      -3.5911      2.00000
     14      -3.5911      2.00000
     15      -2.8283      2.00000
     16      -2.8283      2.00000
     17      -2.4226      2.00000
     18      -2.4226      2.00000
     19      -2.3786      2.00000
     20      -2.3786      2.00000
     21      -2.3335      2.00000
     22      -2.3335      2.00000
     23      -2.0232      2.00000
     24      -2.0232      2.00000
     25      -0.7277      2.00000
     26      -0.7277      2.00000
     27      -0.5197      2.00000
     28      -0.5197      2.00000
     29      -0.4473      2.00000
     30      -0.4473      2.00000
     31       2.1900      0.00000
     32       2.1900      0.00000
     33       2.2336      0.00000
     34       2.2336      0.00000
     35       2.2859      0.00000
     36       2.2859      0.00000
     37       3.4176      0.00000
     38       3.4180      0.00000
     39       3.5665      0.00000
     40       3.5929      0.00000

 k-point    10 :       0.1667    0.0000    0.5000
  band No.  band energies     occupation 
      1     -13.2408      2.00000
      2     -13.2408      2.00000
      3     -13.1711      2.00000
      4     -13.1711      2.00000
      5     -13.1259      2.00000
      6     -13.1259      2.00000
      7      -8.4263      2.00000
      8      -8.4263      2.00000
      9      -8.1360      2.00000
     10      -8.1360      2.00000
     11      -7.8954      2.00000
     12      -7.8954      2.00000
     13      -4.3699      2.00000
     14      -4.3699      2.00000
     15      -4.2637      2.00000
     16      -4.2637      2.00000
     17      -4.1657      2.00000
     18      -4.1657      2.00000
     19      -3.3510      2.00000
     20      -3.3510      2.00000
     21      -2.6377      2.00000
     22      -2.6377      2.00000
     23      -1.9678      2.00000
     24      -1.9678      2.00000
     25      -0.8118      2.00000
     26      -0.8118      2.00000
     27      -0.6448      2.00000
     28      -0.6448      2.00000
     29      -0.4915      2.00000
     30      -0.4915      2.00000
     31       2.8451      0.00000
     32       2.8451      0.00000
     33       2.9833      0.00000
     34       2.9833      0.00000
     35       3.0967      0.00000
     36       3.0967      0.00000
     37       3.5137      0.00000
     38       3.5137      0.00000
     39       3.9746      0.00000
     40       3.9746      0.00000

 k-point    11 :       0.3333    0.0000    0.5000
  band No.  band energies     occupation 
      1     -12.3829      2.00000
      2     -12.3829      2.00000
      3     -12.3153      2.00000
      4     -12.3153      2.00000
      5     -12.2753      2.00000
      6     -12.2753      2.00000
      7      -8.6634      2.00000
      8      -8.6634      2.00000
      9      -8.5138      2.00000
     10      -8.5138      2.00000
     11      -8.4280      2.00000
     12      -8.4280      2.00000
     13      -5.7958      2.00000
     14      -5.7958      2.00000
     15      -5.5445      2.00000
     16      -5.5445      2.00000
     17      -5.3199      2.00000
     18      -5.3199      2.00000
     19      -3.4352      2.00000
     20      -3.4352      2.00000
     21      -3.0686      2.00000
     22      -3.0686      2.00000
     23      -2.7855      2.00000
     24      -2.7855      2.00000
     25      -1.8730      2.00000
     26      -1.8730      2.00000
     27      -1.3273      2.00000
     28      -1.3273      2.00000
     29      -0.8284      2.00000
     30      -0.8284      2.00000
     31       2.6921      0.00000
     32       2.6921      0.00000
     33       3.2788      0.00000
     34       3.2788      0.00000
     35       3.9565      0.00000
     36       3.9569      0.00000
     37       3.9833      0.00000
     38       3.9840      0.00000
     39       4.0853      0.00000
     40       4.0912      0.00000

 k-point    12 :       0.5000    0.0000    0.5000
  band No.  band energies     occupation 
      1     -11.5663      2.00000
      2     -11.5663      2.00000
      3     -11.5104      2.00000
      4     -11.5104      2.00000
      5     -11.5102      2.00000
      6     -11.5102      2.00000
      7      -9.5296      2.00000
      8      -9.5296      2.00000
      9      -9.4662      2.00000
     10      -9.4662      2.00000
     11      -9.4649      2.00000
     12      -9.4649      2.00000
     13      -4.9609      2.00000
     14      -4.9609      2.00000
     15      -4.9461      2.00000
     16      -4.9461      2.00000
     17      -4.6711      2.00000
     18      -4.6711      2.00000
     19      -4.6175      2.00000
     20      -4.6175      2.00000
     21      -4.3753      2.00000
     22      -4.3753      2.00000
     23      -4.3746      2.00000
     24      -4.3746      2.00000
     25      -1.2344      2.00000
     26      -1.2344      2.00000
     27      -1.1803      2.00000
     28      -1.1803      2.00000
     29      -1.0518      2.00000
     30      -1.0518      2.00000
     31       2.6258      0.00000
     32       2.6258      0.00000
     33       2.7587      0.00000
     34       2.7587      0.00000
     35       2.8974      0.00000
     36       2.8974      0.00000
     37       4.8111      0.00000
     38       4.8290      0.00000
     39       4.8651      0.00000
     40       4.8671      0.00000


--------------------------------------------------------------------------------------------------------


 soft charge-density along one line, spin component           1
         0         1         2         3         4         5         6         7         8         9
 total charge-density along one line
 
 pseudopotential strength for first ion, spin component:           1
 29.685  37.031   0.035  -0.033   0.000   0.055  -0.052   0.000
 37.031  46.199   0.044  -0.041  -0.000   0.068  -0.064   0.000
  0.035   0.044   6.554   0.006  -0.000  10.135   0.009  -0.000
 -0.033  -0.041   0.006   6.558  -0.000   0.009  10.141  -0.000
  0.000  -0.000  -0.000  -0.000   6.562  -0.000  -0.000  10.147
  0.055   0.068  10.135   0.009  -0.000  15.692   0.014  -0.000
 -0.052  -0.064   0.009  10.141  -0.000   0.014  15.701  -0.000
  0.000   0.000  -0.000  -0.000  10.147  -0.000  -0.000  15.711
 total augmentation occupancy for first ion, spin component:           1
  8.300  -4.733   1.856  -1.946  -0.000  -0.592   0.651   0.000
 -4.733   3.439  -1.595   1.652   0.000   0.438  -0.478   0.000
  1.856  -1.595   3.138   0.195   0.000  -0.828  -0.162   0.000
 -1.946   1.652   0.195   3.278   0.000  -0.161  -0.927   0.000
  0.000  -0.000   0.000   0.000   3.408   0.000   0.000  -1.030
 -0.592   0.438  -0.828  -0.161   0.000   0.261   0.070   0.000
  0.651  -0.478  -0.162  -0.927  -0.000   0.070   0.300   0.000
 -0.000   0.000   0.000   0.000  -1.030   0.000   0.000   0.341


------------------------ aborting loop because EDIFF is reached ----------------------------------------


 


 total charge     
 
# of ion       s       p       d       tot
------------------------------------------
    1        1.082   1.376   0.000   2.458
    2        1.082   1.376   0.000   2.458
    3        1.084   1.372   0.000   2.456
    4        1.084   1.372   0.000   2.456
    5        1.084   1.372   0.000   2.456
    6        1.084   1.372   0.000   2.456
    7        1.084   1.372   0.000   2.456
    8        1.084   1.372   0.000   2.456
    9        1.084   1.372   0.000   2.456
   10        1.084   1.372   0.000   2.456
   11        1.082   1.376   0.000   2.458
   12        1.082   1.376   0.000   2.458
--------------------------------------------------
tot         13.000  16.479   0.000  29.479
 
    CHARGE:  cpu time    0.0339: real time    0.0340
    FORLOC:  cpu time    0.0015: real time    0.0015
    FORNL :  cpu time    0.1254: real time    0.1254
    STRESS:  cpu time    0.1920: real time    0.1920
    FORCOR:  cpu time    0.0197: real time    0.0197
    FORHAR:  cpu time    0.0056: real time    0.0057
    MIXING:  cpu time    0.0010: real time    0.0010
    OFIELD:  cpu time    0.0000: real time    0.0000

  DFT-D2 method for vdW energy calculation
  -------------------------------------------------------------------

  Parameters of vdW forcefield:
         C6(Jnm^6/mol)     R0(A)
   -----------------------------
   P        7.840          1.705

  IVDW =  10
  VDW_RADIUS =    50.000 A
  VDW_S6 =     0.750
  VDW_SR =     1.000
  VDW_D =    20.000
  LVDW_EWALD = F

  Number of pair interactions contributing to vdW energy:   88382
  Edisp (eV):   -2.17394
    FORVDW:  cpu time    0.0524: real time    0.0530

  FORCE on cell =-STRESS in cart. coord.  units (eV):
  Direction    XX          YY          ZZ          XY          YZ          ZX
  --------------------------------------------------------------------------------------
  Alpha Z    30.28014    30.28014    30.28014
  Ewald   16591.01473-18044.25022 16426.47569    -0.00000     0.00000     0.00000
  Hartree 16898.17733-16770.92156 16840.99308    -0.00000    -0.00000    -0.00000
  E(xc)    -201.44670  -202.70540  -201.63669     0.00000     0.00000     0.00000
  Local  -34441.01618 33820.29355-34239.68799    -0.00000     0.00000     0.00000
  n-local   679.79164   678.14135   674.62084     0.00001    -0.00001     1.46357
  augment  -126.46105  -130.48755  -128.83902     0.00000     0.00000    -0.00000
  Kinetic   570.18234   620.10613   600.02561     0.00000    -0.00000     6.08115
  Fock        0.00000     0.00000     0.00000     0.00000     0.00000     0.00000
  vdW        -0.23282    -1.41063    -0.99576    -0.00000    -0.00000     0.00000
  -------------------------------------------------------------------------------------
  Total       0.28944    -0.95419     1.23589     0.00000     0.00000     0.00000
  in kB       0.97261    -3.20638     4.15297     0.00000     0.00000     0.00000
  external pressure =        0.64 kB  Pullay stress =        0.00 kB


 VOLUME and BASIS-vectors are now :
 -----------------------------------------------------------------------------
  energy-cutoff  :      450.00
  volume of cell :      476.80
      direct lattice vectors                 reciprocal lattice vectors
     3.342886000  0.000000000  0.000000000     0.299142717  0.000000000  0.000000000
     0.000000000 32.602409000  0.000000000     0.000000000  0.030672580  0.000000000
     0.000000000  0.000000000  4.374831000     0.000000000  0.000000000  0.228580258

  length of vectors
     3.342886000 32.602409000  4.374831000     0.299142717  0.030672580  0.228580258


 FORCES acting on ions
    electron-ion (+dipol)            ewald-force                    non-local-force                 convergence-correction
 -----------------------------------------------------------------------------------------------
   -.183E-14 0.823E+03 -.291E+02   0.114E-14 -.828E+03 0.342E+02   0.000E+00 0.583E+01 -.517E+01   0.117E-14 0.105E-02 -.613E-04
   -.149E-13 0.823E+03 0.291E+02   -.458E-14 -.828E+03 -.342E+02   0.000E+00 0.583E+01 0.517E+01   0.303E-15 0.105E-02 0.613E-04
   0.500E-16 0.459E+03 0.260E+02   0.181E-14 -.453E+03 -.313E+02   -.278E-16 -.553E+01 0.522E+01   0.248E-15 -.859E-03 -.249E-03
   -.157E-13 0.459E+03 -.260E+02   -.613E-14 -.453E+03 0.313E+02   0.000E+00 -.553E+01 -.522E+01   0.157E-14 -.859E-03 0.249E-03
   -.155E-13 0.183E+03 -.262E+02   0.754E-15 -.189E+03 0.314E+02   0.000E+00 0.546E+01 -.521E+01   0.214E-14 0.222E-02 -.375E-03
   -.524E-15 0.183E+03 0.262E+02   -.638E-14 -.189E+03 -.314E+02   -.278E-16 0.546E+01 0.521E+01   0.460E-16 0.222E-02 0.375E-03
   -.146E-13 -.183E+03 0.262E+02   0.197E-14 0.189E+03 -.314E+02   0.000E+00 -.546E+01 0.521E+01   0.922E-15 -.222E-02 0.375E-03
   -.169E-15 -.183E+03 -.262E+02   -.498E-14 0.189E+03 0.314E+02   0.278E-16 -.546E+01 -.521E+01   0.470E-15 -.222E-02 -.375E-03
   -.180E-14 -.459E+03 -.260E+02   0.911E-15 0.453E+03 0.313E+02   0.278E-16 0.553E+01 -.522E+01   -.105E-14 0.859E-03 0.249E-03
   -.149E-13 -.459E+03 0.260E+02   -.523E-14 0.453E+03 -.313E+02   0.000E+00 0.553E+01 0.522E+01   0.298E-14 0.859E-03 -.249E-03
   -.156E-14 -.823E+03 0.291E+02   0.158E-14 0.828E+03 -.342E+02   0.000E+00 -.583E+01 0.517E+01   0.390E-15 -.105E-02 0.613E-04
   -.120E-13 -.823E+03 -.291E+02   -.679E-14 0.828E+03 0.342E+02   0.000E+00 -.583E+01 -.517E+01   0.162E-14 -.105E-02 -.613E-04
 -----------------------------------------------------------------------------------------------
   -.934E-13 0.330E-11 0.428E-10   -.259E-13 0.000E+00 -.711E-14   0.000E+00 0.888E-15 0.000E+00   0.108E-13 -.350E-11 -.208E-13
 
 
 POSITION                                       TOTAL-FORCE (eV/Angst)
 -----------------------------------------------------------------------------------
      0.00000     10.00001      4.02014         0.000000      0.080251     -0.037026
      1.67144     10.00001      2.54211         0.000000      0.080251      0.037026
      0.00000     12.14332      0.35469         0.000000     -0.076036     -0.022916
      1.67144     12.14332      1.83272         0.000000     -0.076036      0.022916
      1.67144     15.22953      4.02014         0.000000      0.035818      0.004028
      0.00000     15.22953      2.54211         0.000000      0.035818     -0.004028
      1.67144     17.37288      0.35469         0.000000     -0.035818     -0.004028
      0.00000     17.37288      1.83272         0.000000     -0.035818      0.004028
      0.00000     20.45909      4.02014         0.000000      0.076036      0.022916
      1.67144     20.45909      2.54211         0.000000      0.076036     -0.022916
      0.00000     22.60240      0.35469         0.000000     -0.080251      0.037026
      1.67144     22.60240      1.83272         0.000000     -0.080251     -0.037026
 -----------------------------------------------------------------------------------
    total drift:                               -0.000000     -0.000000      0.000000


--------------------------------------------------------------------------------------------------------



  FREE ENERGIE OF THE ION-ELECTRON SYSTEM (eV)
  ---------------------------------------------------
  free  energy   TOTEN  =       -66.51225013 eV

  energy  without entropy=      -66.51225006  energy(sigma->0) =      -66.51225009
 


--------------------------------------------------------------------------------------------------------


    POTLOK:  cpu time    0.1242: real time    0.1242


--------------------------------------------------------------------------------------------------------


 writing wavefunctions
     LOOP+:  cpu time   14.3424: real time   14.4047
    4ORBIT:  cpu time    0.0000: real time    0.0000
 


 total charge     
 
# of ion       s       p       d       tot
------------------------------------------
    1        1.082   1.376   0.000   2.458
    2        1.082   1.376   0.000   2.458
    3        1.084   1.372   0.000   2.456
    4        1.084   1.372   0.000   2.456
    5        1.084   1.372   0.000   2.456
    6        1.084   1.372   0.000   2.456
    7        1.084   1.372   0.000   2.456
    8        1.084   1.372   0.000   2.456
    9        1.084   1.372   0.000   2.456
   10        1.084   1.372   0.000   2.456
   11        1.082   1.376   0.000   2.458
   12        1.082   1.376   0.000   2.458
--------------------------------------------------
tot         13.000  16.479   0.000  29.479
 

 total amount of memory used by VASP MPI-rank0    37479. kBytes
=======================================================================

   base      :      30000. kBytes
   nonl-proj :       1248. kBytes
   fftplans  :       1467. kBytes
   grid      :       2232. kBytes
   one-center:          6. kBytes
   wavefun   :       2526. kBytes
 
  
  
 General timing and accounting informations for this job:
 ========================================================
  
                  Total CPU time used (sec):       20.533
                            User time (sec):       17.823
                          System time (sec):        2.710
                         Elapsed time (sec):       21.139
  
                   Maximum memory used (kb):      109400.
                   Average memory used (kb):           0.
  
                          Minor page faults:        42736
                          Major page faults:            0
                 Voluntary context switches:         2390
