 vasp.5.4.4.18Apr17-6-g9f103f2a35 (build Jun 20 2017 18:00:50) complex          
  
 executed on             LinuxIFC date 2018.03.16  16:00:17
 running on   32 total cores
 distrk:  each k-point on   32 cores,    1 groups
 distr:  one band on NCORES_PER_BAND=   8 cores,    4 groups


--------------------------------------------------------------------------------------------------------


 INCAR:
 POTCAR:    PAW_PBE P 06Sep2000                   
 POTCAR:    PAW_PBE P 06Sep2000                   
   VRHFIN =P : s2p3                                                             
   LEXCH  = PE                                                                  
   EATOM  =   176.0430 eV,   12.9388 Ry                                         
                                                                                
   TITEL  = PAW_PBE P 06Sep2000                                                 
   LULTRA =        F    use ultrasoft PP ?                                      
   IUNSCR =        1    unscreen: 0-lin 1-nonlin 2-no                           
   RPACOR =    1.500    partial core radius                                     
   POMASS =   30.974; ZVAL   =    5.000    mass and valenz                      
   RCORE  =    1.900    outmost cutoff radius                                   
   RWIGS  =    2.330; RWIGS  =    1.233    wigner-seitz radius (au A)           
   ENMAX  =  255.040; ENMIN  =  191.280 eV                                      
   ICORE  =        2    local potential                                         
   LCOR   =        T    correct aug charges                                     
   LPAW   =        T    paw PP                                                  
   EAUG   =  342.924                                                            
   DEXC   =    0.000                                                            
   RMAX   =    1.935    core radius for proj-oper                               
   RAUG   =    1.300    factor for augmentation sphere                          
   RDEP   =    1.931    radius for radial grids                                 
   RDEPT  =    1.794    core radius for aug-charge                              
                                                                                
   Atomic configuration                                                         
    6 entries                                                                   
     n  l   j            E        occ.                                          
     1  0  0.50     -2084.0982   2.0000                                         
     2  0  0.50      -173.9859   2.0000                                         
     2  1  1.50      -124.4865   6.0000                                         
     3  0  0.50       -13.9692   2.0000                                         
     3  1  0.50        -5.5067   3.0000                                         
     3  2  1.50        -5.4423   0.0000                                         
   Description                                                                  
     l       E           TYP  RCUT    TYP  RCUT                                 
     0    -13.9691527     23  1.900                                             
     0    -11.7794650     23  1.900                                             
     1     -5.5066937     23  1.900                                             
     1     -0.2556953     23  1.900                                             
     2     -5.4423304     23  1.900                                             
  local pseudopotential read in
  partial core-charges read in
  partial kinetic energy density read in
  atomic valenz-charges read in
  non local Contribution for L=           0  read in
    real space projection operators read in
  non local Contribution for L=           0  read in
    real space projection operators read in
  non local Contribution for L=           1  read in
    real space projection operators read in
  non local Contribution for L=           1  read in
    real space projection operators read in
    PAW grid and wavefunctions read in
 
   number of l-projection  operators is LMAX  =           4
   number of lm-projection operators is LMMAX =           8
 
  PAW_PBE P 06Sep2000                   :
 energy of atom  1       EATOM= -176.0430
 kinetic energy error for atom=    0.0005 (will be added to EATOM!!)
 
 
 POSCAR: P12                                     
  positions in direct lattice
  No initial velocities read in
 exchange correlation table for  LEXCH =        8
   RHO(1)=    0.500       N(1)  =     2000
   RHO(2)=  100.500       N(2)  =     4000
 


--------------------------------------------------------------------------------------------------------


 ion  position               nearest neighbor table
   1  0.000  0.307  0.919-   2 2.23   2 2.23   3 2.26
   2  0.500  0.307  0.581-   1 2.23   1 2.23   4 2.26
   3  0.000  0.372  0.081-   4 2.23   4 2.23   1 2.26
   4  0.500  0.372  0.419-   3 2.23   3 2.23   2 2.26
   5  0.500  0.467  0.919-   6 2.23   6 2.23   7 2.26
   6  0.000  0.467  0.581-   5 2.23   5 2.23   8 2.26
   7  0.500  0.533  0.081-   8 2.23   8 2.23   5 2.26
   8  0.000  0.533  0.419-   7 2.23   7 2.23   6 2.26
   9  0.000  0.628  0.919-  10 2.23  10 2.23  11 2.26
  10  0.500  0.628  0.581-   9 2.23   9 2.23  12 2.26
  11  0.000  0.693  0.081-  12 2.23  12 2.23   9 2.26
  12  0.500  0.693  0.419-  11 2.23  11 2.23  10 2.26
 
  LATTYP: Found a simple orthorhombic cell.
 ALAT       =     3.3428860000
 B/A-ratio  =     1.3086988309
 C/A-ratio  =     9.7527732026
  
  Lattice vectors:
  
 A1 = (  -3.3428860000,   0.0000000000,   0.0000000000)
 A2 = (   0.0000000000,   0.0000000000,  -4.3748310000)
 A3 = (   0.0000000000, -32.6024090000,   0.0000000000)


Analysis of symmetry for initial positions (statically):
=====================================================================
 Subroutine PRICEL returns:
 Original cell was already a primitive cell.
 

 Routine SETGRP: Setting up the symmetry group for a 
 simple orthorhombic supercell.


 Subroutine GETGRP returns: Found  8 space group operations
 (whereof  4 operations were pure point group operations)
 out of a pool of  8 trial point group operations.


The static configuration has the point symmetry C_2h.
 The point group associated with its full space group is D_2h.


Analysis of symmetry for dynamics (positions and initial velocities):
=====================================================================
 Subroutine PRICEL returns:
 Original cell was already a primitive cell.
 

 Routine SETGRP: Setting up the symmetry group for a 
 simple orthorhombic supercell.


 Subroutine GETGRP returns: Found  8 space group operations
 (whereof  4 operations were pure point group operations)
 out of a pool of  8 trial point group operations.


The dynamic configuration has the point symmetry C_2h.
 The point group associated with its full space group is D_2h.


 Subroutine INISYM returns: Found  8 space group operations
 (whereof  4 operations are pure point group operations),
 and found     1 'primitive' translations

 
 
 KPOINTS: Automatic mesh                          

Automatic generation of k-mesh.
Space group operators:
 irot       det(A)        alpha          n_x          n_y          n_z        tau_x        tau_y        tau_z
    1     1.000000     0.000001     1.000000     0.000000     0.000000     0.000000     0.000000     0.000000
    2    -1.000000     0.000001     1.000000     0.000000     0.000000     0.000000     0.000000     0.000000
    3     1.000000   179.999999     1.000000     0.000000     0.000000     0.000000     0.000000     0.000000
    4    -1.000000   179.999999     1.000000     0.000000     0.000000     0.000000     0.000000     0.000000
    5     1.000000   179.999999     0.000000     1.000000     0.000000    -0.500000     0.000000    -0.500000
    6    -1.000000   179.999999     0.000000     1.000000     0.000000    -0.500000     0.000000    -0.500000
    7     1.000000   179.999999     0.000000     0.000000     1.000000    -0.500000     0.000000    -0.500000
    8    -1.000000   179.999999     0.000000     0.000000     1.000000    -0.500000     0.000000    -0.500000
 
 Subroutine IBZKPT returns following result:
 ===========================================
 
 Found     12 irreducible k-points:
 
 Following reciprocal coordinates:
            Coordinates               Weight
  0.000000  0.000000  0.000000      1.000000
  0.166667  0.000000  0.000000      2.000000
  0.333333  0.000000  0.000000      2.000000
  0.500000  0.000000  0.000000      1.000000
  0.000000  0.000000  0.250000      2.000000
  0.166667  0.000000  0.250000      4.000000
  0.333333  0.000000  0.250000      4.000000
  0.500000  0.000000  0.250000      2.000000
  0.000000  0.000000  0.500000      1.000000
  0.166667  0.000000  0.500000      2.000000
  0.333333  0.000000  0.500000      2.000000
  0.500000  0.000000  0.500000      1.000000
 
 Following cartesian coordinates:
            Coordinates               Weight
  0.000000  0.000000  0.000000      1.000000
  0.049857  0.000000  0.000000      2.000000
  0.099714  0.000000  0.000000      2.000000
  0.149571  0.000000  0.000000      1.000000
  0.000000  0.000000  0.057145      2.000000
  0.049857  0.000000  0.057145      4.000000
  0.099714  0.000000  0.057145      4.000000
  0.149571  0.000000  0.057145      2.000000
  0.000000  0.000000  0.114290      1.000000
  0.049857  0.000000  0.114290      2.000000
  0.099714  0.000000  0.114290      2.000000
  0.149571  0.000000  0.114290      1.000000
 


--------------------------------------------------------------------------------------------------------




 Dimension of arrays:
   k-points           NKPTS =     12   k-points in BZ     NKDIM =     12   number of bands    NBANDS=     40
   number of dos      NEDOS =   2000   number of ions     NIONS =     12
   non local maximal  LDIM  =      4   non local SUM 2l+1 LMDIM =      8
   total plane-waves  NPLWV = 141120
   max r-space proj   IRMAX =      1   max aug-charges    IRDMAX=   9206
   dimension x,y,z NGX =    24 NGY =  210 NGZ =   28
   dimension x,y,z NGXF=    48 NGYF=  420 NGZF=   56
   support grid    NGXF=    48 NGYF=  420 NGZF=   56
   ions per type =              12
   NGX,Y,Z   is equivalent  to a cutoff of  11.94, 10.71, 10.64 a.u.
   NGXF,Y,Z  is equivalent  to a cutoff of  23.87, 21.42, 21.28 a.u.

 SYSTEM =  Generic Input                           
 POSCAR =  P12                                     

 Startparameter for this run:
   NWRITE =      2    write-flag & timer
   PREC   = normal    normal or accurate (medium, high low for compatibility)
   ISTART =      0    job   : 0-new  1-cont  2-samecut
   ICHARG =      2    charge: 1-file 2-atom 10-const
   ISPIN  =      1    spin polarized calculation?
   LNONCOLLINEAR =      F non collinear calculations
   LSORBIT =      F    spin-orbit coupling
   INIWAV =      1    electr: 0-lowe 1-rand  2-diag
   LASPH  =      T    aspherical Exc in radial PAW
   METAGGA=      F    non-selfconsistent MetaGGA calc.

 Electronic Relaxation 1
   ENCUT  =  650.0 eV  47.77 Ry    6.91 a.u.   6.95 67.77  9.09*2*pi/ulx,y,z
   ENINI  =  650.0     initial cutoff
   ENAUG  =  342.9 eV  augmentation charge cutoff
   NELM   =    200;   NELMIN=  2; NELMDL=  0     # of ELM steps 
   EDIFF  = 0.1E-04   stopping-criterion for ELM
   LREAL  =      F    real-space projection
   NLSPLINE    = F    spline interpolate recip. space projectors
   LCOMPAT=      F    compatible to vasp.4.4
   GGA_COMPAT  = T    GGA compatible to vasp.4.4-vasp.4.6
   LMAXPAW     = -100 max onsite density
   LMAXMIX     =    2 max onsite mixed and CHGCAR
   VOSKOWN=      0    Vosko Wilk Nusair interpolation
   ROPT   =    0.00000
 Ionic relaxation
   EDIFFG = -.2E-01   stopping-criterion for IOM
   NSW    =      0    number of steps for IOM
   NBLOCK =      1;   KBLOCK =      1    inner block; outer block 
   IBRION =     -1    ionic relax: 0-MD 1-quasi-New 2-CG
   NFREE  =      1    steps in history (QN), initial steepest desc. (CG)
   ISIF   =      3    stress and relaxation
   IWAVPR =     11    prediction:  0-non 1-charg 2-wave 3-comb
   ISYM   =      2    0-nonsym 1-usesym 2-fastsym
   LCORR  =      T    Harris-Foulkes like correction to forces

   POTIM  = 0.5000    time-step for ionic-motion
   TEIN   =    0.0    initial temperature
   TEBEG  =    0.0;   TEEND  =   0.0 temperature during run
   SMASS  =  -3.00    Nose mass-parameter (am)
   estimated Nose-frequenzy (Omega)   =  0.10E-29 period in steps =****** mass=  -0.255E-27a.u.
   SCALEE = 1.0000    scale energy and forces
   NPACO  =    256;   APACO  = 16.0  distance and # of slots for P.C.
   PSTRESS=    0.0 pullay stress

  Mass of Ions in am
   POMASS =  30.97
  Ionic Valenz
   ZVAL   =   5.00
  Atomic Wigner-Seitz radii
   RWIGS  =  -1.00
  virtual crystal weights 
   VCA    =   1.00
   NELECT =      60.0000    total number of electrons
   NUPDOWN=      -1.0000    fix difference up-down

 DOS related values:
   EMIN   =  10.00;   EMAX   =-10.00  energy-range for DOS
   EFERMI =   0.00
   ISMEAR =     0;   SIGMA  =   0.01  broadening in eV -4-tet -1-fermi 0-gaus

 Electronic relaxation 2 (details)
   IALGO  =     38    algorithm
   LDIAG  =      T    sub-space diagonalisation (order eigenvalues)
   LSUBROT=      F    optimize rotation matrix (better conditioning)
   TURBO    =      0    0=normal 1=particle mesh
   IRESTART =      0    0=no restart 2=restart with 2 vectors
   NREBOOT  =      0    no. of reboots
   NMIN     =      0    reboot dimension
   EREF     =   0.00    reference energy to select bands
   IMIX   =      4    mixing-type and parameters
     AMIX     =   0.40;   BMIX     =  1.00
     AMIX_MAG =   1.60;   BMIX_MAG =  1.00
     AMIN     =   0.10
     WC   =   100.;   INIMIX=   1;  MIXPRE=   1;  MAXMIX= -45

 Intra band minimization:
   WEIMIN = 0.0000     energy-eigenvalue tresh-hold
   EBREAK =  0.63E-07  absolut break condition
   DEPER  =   0.30     relativ break condition  

   TIME   =   0.40     timestep for ELM

  volume/ion in A,a.u.               =      39.73       268.13
  Fermi-wavevector in a.u.,A,eV,Ry     =   0.820379  1.550291  9.157011  0.673021
  Thomas-Fermi vector in A             =   1.931350
 
 Write flags
   LWAVE        =      T    write WAVECAR
   LDOWNSAMPLE  =      F    k-point downsampling of WAVECAR
   LCHARG       =      T    write CHGCAR
   LVTOT        =      F    write LOCPOT, total local potential
   LVHAR        =      T    write LOCPOT, Hartree potential only
   LELF         =      F    write electronic localiz. function (ELF)
   LORBIT       =     11    0 simple, 1 ext, 2 COOP (PROOUT), +10 PAW based schemes


 Dipole corrections
   LMONO  =      F    monopole corrections only (constant potential shift)
   LDIPOL =      F    correct potential (dipole corrections)
   IDIPOL =      0    1-x, 2-y, 3-z, 4-all directions 
   EPSILON=  1.0000000 bulk dielectric constant

 Core level calculations are selected ICORELEVEL =  1
 Exchange correlation treatment:
   GGA     =    PE    GGA type
   LEXCH   =     8    internal setting for exchange type
   VOSKOWN=      0    Vosko Wilk Nusair interpolation
   LHFCALC =     F    Hartree Fock is set to
   LHFONE  =     F    Hartree Fock one center treatment
   AEXX    =    0.0000 exact exchange contribution

 Linear response parameters
   LEPSILON=     F    determine dielectric tensor
   LRPA    =     F    only Hartree local field effects (RPA)
   LNABLA  =     F    use nabla operator in PAW spheres
   LVEL    =     F    velocity operator in full k-point grid
   LINTERFAST=   F  fast interpolation
   KINTER  =     0    interpolate to denser k-point grid
   CSHIFT  =0.1000    complex shift for real part using Kramers Kronig
   OMEGAMAX=  -1.0    maximum frequency
   DEG_THRESHOLD= 0.2000000E-02 threshold for treating states as degnerate
   RTIME   =   -0.100 relaxation time in fs
  (WPLASMAI=    0.000 imaginary part of plasma frequency in eV, 0.658/RTIME)
   DFIELD  = 0.0000000 0.0000000 0.0000000 field for delta impulse in time
 
 Orbital magnetization related:
   ORBITALMAG=     F  switch on orbital magnetization
   LCHIMAG   =     F  perturbation theory with respect to B field
   DQ        =  0.001000  dq finite difference perturbation B field
   LLRAUG    =     F  two centre corrections for induced B field



--------------------------------------------------------------------------------------------------------


 Static calculation
 charge density and potential will be updated during run
 non-spin polarized calculation
 Variant of blocked Davidson
 Davidson routine will perform the subspace rotation
 perform sub-space diagonalisation
    after iterative eigenvector-optimisation
 modified Broyden-mixing scheme, WC =      100.0
 initial mixing is a Kerker type mixing with AMIX =  0.4000 and BMIX =      1.0000
 Hartree-type preconditioning will be used
 using additional bands           10
 reciprocal scheme for non local part
 use partial core corrections
 calculate Harris-corrections to forces 
   (improved forces if not selfconsistent)
 use gradient corrections 
 use of overlap-Matrix (Vanderbilt PP)
 Gauss-broadening in eV      SIGMA  =   0.01


--------------------------------------------------------------------------------------------------------


  energy-cutoff  :      650.00
  volume of cell :      476.80
      direct lattice vectors                 reciprocal lattice vectors
     3.342886000  0.000000000  0.000000000     0.299142717  0.000000000  0.000000000
     0.000000000 32.602409000  0.000000000     0.000000000  0.030672580  0.000000000
     0.000000000  0.000000000  4.374831000     0.000000000  0.000000000  0.228580258

  length of vectors
     3.342886000 32.602409000  4.374831000     0.299142717  0.030672580  0.228580258


 
 k-points in units of 2pi/SCALE and weight: Automatic mesh                          
   0.00000000  0.00000000  0.00000000       0.042
   0.04985712  0.00000000  0.00000000       0.083
   0.09971424  0.00000000  0.00000000       0.083
   0.14957136  0.00000000  0.00000000       0.042
   0.00000000  0.00000000  0.05714506       0.083
   0.04985712  0.00000000  0.05714506       0.167
   0.09971424  0.00000000  0.05714506       0.167
   0.14957136  0.00000000  0.05714506       0.083
   0.00000000  0.00000000  0.11429013       0.042
   0.04985712  0.00000000  0.11429013       0.083
   0.09971424  0.00000000  0.11429013       0.083
   0.14957136  0.00000000  0.11429013       0.042
 
 k-points in reciprocal lattice and weights: Automatic mesh                          
   0.00000000  0.00000000  0.00000000       0.042
   0.16666667  0.00000000  0.00000000       0.083
   0.33333333  0.00000000  0.00000000       0.083
   0.50000000  0.00000000  0.00000000       0.042
   0.00000000  0.00000000  0.25000000       0.083
   0.16666667  0.00000000  0.25000000       0.167
   0.33333333  0.00000000  0.25000000       0.167
   0.50000000  0.00000000  0.25000000       0.083
   0.00000000  0.00000000  0.50000000       0.042
   0.16666667  0.00000000  0.50000000       0.083
   0.33333333  0.00000000  0.50000000       0.083
   0.50000000  0.00000000  0.50000000       0.042
 
 position of ions in fractional coordinates (direct lattice) 
   0.00000000  0.30672600  0.91892400
   0.50000000  0.30672600  0.58107600
   0.00000000  0.37246700  0.08107600
   0.50000000  0.37246700  0.41892400
   0.50000000  0.46712900  0.91892400
   0.00000000  0.46712900  0.58107600
   0.50000000  0.53287100  0.08107600
   0.00000000  0.53287100  0.41892400
   0.00000000  0.62753300  0.91892400
   0.50000000  0.62753300  0.58107600
   0.00000000  0.69327400  0.08107600
   0.50000000  0.69327400  0.41892400
 
 position of ions in cartesian coordinates  (Angst):
   0.00000000 10.00000650  4.02013720
   1.67144300 10.00000650  2.54210930
   0.00000000 12.14332147  0.35469380
   1.67144300 12.14332147  1.83272170
   1.67144300 15.22953071  4.02013720
   0.00000000 15.22953071  2.54210930
   1.67144300 17.37287829  0.35469380
   0.00000000 17.37287829  1.83272170
   0.00000000 20.45908753  4.02013720
   1.67144300 20.45908753  2.54210930
   0.00000000 22.60240250  0.35469380
   1.67144300 22.60240250  1.83272170
 


--------------------------------------------------------------------------------------------------------


 k-point  1 :   0.0000 0.0000 0.0000  plane waves:   17865
 k-point  2 :   0.1667 0.0000 0.0000  plane waves:   17924
 k-point  3 :   0.3333 0.0000 0.0000  plane waves:   17930
 k-point  4 :   0.5000 0.0000 0.0000  plane waves:   17914
 k-point  5 :   0.0000 0.0000 0.2500  plane waves:   17850
 k-point  6 :   0.1667 0.0000 0.2500  plane waves:   17930
 k-point  7 :   0.3333 0.0000 0.2500  plane waves:   17969
 k-point  8 :   0.5000 0.0000 0.2500  plane waves:   17996
 k-point  9 :   0.0000 0.0000 0.5000  plane waves:   17890
 k-point 10 :   0.1667 0.0000 0.5000  plane waves:   17972
 k-point 11 :   0.3333 0.0000 0.5000  plane waves:   18022
 k-point 12 :   0.5000 0.0000 0.5000  plane waves:   18016

 maximum and minimum number of plane-waves per node :      2274     2213

 maximum number of plane-waves:     18022
 maximum index in each direction: 
   IXMAX=    6   IYMAX=   67   IZMAX=    9
   IXMIN=   -7   IYMIN=  -67   IZMIN=   -9


 parallel 3D FFT for wavefunctions:
    minimum data exchange during FFTs selected (reduces bandwidth)
 parallel 3D FFT for charge:
    minimum data exchange during FFTs selected (reduces bandwidth)


 total amount of memory used by VASP MPI-rank0    41697. kBytes
=======================================================================

   base      :      30000. kBytes
   nonl-proj :       2184. kBytes
   fftplans  :       2080. kBytes
   grid      :       3027. kBytes
   one-center:          6. kBytes
   wavefun   :       4400. kBytes
 
     INWAV:  cpu time    0.0000: real time    0.0000
 Broyden mixing: mesh for mixing (old mesh)
   NGX = 13   NGY =135   NGZ = 19
  (NGX  = 48   NGY  =420   NGZ  = 56)
  gives a total of  33345 points

 initial charge density was supplied:
 charge density of overlapping atoms calculated
 number of electron      60.0000000 magnetization 
 keeping initial charge density in first step


--------------------------------------------------------------------------------------------------------


 Maximum index for augmentation-charges          478 (set IRDMAX)


--------------------------------------------------------------------------------------------------------


 First call to EWALD:  gamma=   0.227
 Maximum number of real-space cells 6x 1x 5
 Maximum number of reciprocal cells 1x10x 2

    FEWALD:  cpu time    0.0017: real time    0.0017


--------------------------------------- Iteration      1(   1)  ---------------------------------------


    POTLOK:  cpu time    0.0440: real time    0.0634
    SETDIJ:  cpu time    0.0648: real time    0.0648
     EDDAV:  cpu time    0.8584: real time    0.8601
       DOS:  cpu time    0.0006: real time    0.0006
    --------------------------------------------
      LOOP:  cpu time    0.9678: real time    0.9889

 eigenvalue-minimisations  :   960
 total energy-change (2. order) : 0.4068595E+03  (-0.2440375E+04)
 number of electron      60.0000000 magnetization 
 augmentation part       60.0000000 magnetization 

 Free energy of the ion-electron system (eV)
  ---------------------------------------------------
  alpha Z        PSCENC =        30.28014394
  Ewald energy   TEWEN  =     14973.24208224
  -Hartree energ DENC   =    -16928.93300519
  -exchange      EXHF   =         0.00000000
  -V(xc)+E(xc)   XCENC  =        40.33410220
  PAW double counting   =      1677.12035881    -1579.18296132
  entropy T*S    EENTRO =        -0.00071048
  eigenvalues    EBANDS =        81.48981299
  atomic energy  EATOM  =      2112.50969837
  Solvation  Ediel_sol  =         0.00000000
  ---------------------------------------------------
  free energy    TOTEN  =       406.85952155 eV

  energy without entropy =      406.86023203  energy(sigma->0) =      406.85987679


--------------------------------------------------------------------------------------------------------




--------------------------------------- Iteration      1(   2)  ---------------------------------------


     EDDAV:  cpu time    1.1119: real time    1.1146
       DOS:  cpu time    0.0006: real time    0.0006
    --------------------------------------------
      LOOP:  cpu time    1.1125: real time    1.1152

 eigenvalue-minimisations  :  1344
 total energy-change (2. order) :-0.4243545E+03  (-0.4101951E+03)
 number of electron      60.0000000 magnetization 
 augmentation part       60.0000000 magnetization 

 Free energy of the ion-electron system (eV)
  ---------------------------------------------------
  alpha Z        PSCENC =        30.28014394
  Ewald energy   TEWEN  =     14973.24208224
  -Hartree energ DENC   =    -16928.93300519
  -exchange      EXHF   =         0.00000000
  -V(xc)+E(xc)   XCENC  =        40.33410220
  PAW double counting   =      1677.12035881    -1579.18296132
  entropy T*S    EENTRO =        -0.00063987
  eigenvalues    EBANDS =      -342.86471552
  atomic energy  EATOM  =      2112.50969837
  Solvation  Ediel_sol  =         0.00000000
  ---------------------------------------------------
  free energy    TOTEN  =       -17.49493635 eV

  energy without entropy =      -17.49429648  energy(sigma->0) =      -17.49461641


--------------------------------------------------------------------------------------------------------




--------------------------------------- Iteration      1(   3)  ---------------------------------------


     EDDAV:  cpu time    0.9658: real time    0.9679
       DOS:  cpu time    0.0004: real time    0.0004
    --------------------------------------------
      LOOP:  cpu time    0.9662: real time    0.9683

 eigenvalue-minimisations  :  1136
 total energy-change (2. order) :-0.4554252E+02  (-0.4488120E+02)
 number of electron      60.0000000 magnetization 
 augmentation part       60.0000000 magnetization 

 Free energy of the ion-electron system (eV)
  ---------------------------------------------------
  alpha Z        PSCENC =        30.28014394
  Ewald energy   TEWEN  =     14973.24208224
  -Hartree energ DENC   =    -16928.93300519
  -exchange      EXHF   =         0.00000000
  -V(xc)+E(xc)   XCENC  =        40.33410220
  PAW double counting   =      1677.12035881    -1579.18296132
  entropy T*S    EENTRO =        -0.00000000
  eigenvalues    EBANDS =      -388.40787318
  atomic energy  EATOM  =      2112.50969837
  Solvation  Ediel_sol  =         0.00000000
  ---------------------------------------------------
  free energy    TOTEN  =       -63.03745414 eV

  energy without entropy =      -63.03745414  energy(sigma->0) =      -63.03745414


--------------------------------------------------------------------------------------------------------




--------------------------------------- Iteration      1(   4)  ---------------------------------------


     EDDAV:  cpu time    1.1526: real time    1.1550
       DOS:  cpu time    0.0004: real time    0.0004
    --------------------------------------------
      LOOP:  cpu time    1.1530: real time    1.1554

 eigenvalue-minimisations  :  1384
 total energy-change (2. order) :-0.1721281E+01  (-0.1707648E+01)
 number of electron      60.0000000 magnetization 
 augmentation part       60.0000000 magnetization 

 Free energy of the ion-electron system (eV)
  ---------------------------------------------------
  alpha Z        PSCENC =        30.28014394
  Ewald energy   TEWEN  =     14973.24208224
  -Hartree energ DENC   =    -16928.93300519
  -exchange      EXHF   =         0.00000000
  -V(xc)+E(xc)   XCENC  =        40.33410220
  PAW double counting   =      1677.12035881    -1579.18296132
  entropy T*S    EENTRO =        -0.00000000
  eigenvalues    EBANDS =      -390.12915410
  atomic energy  EATOM  =      2112.50969837
  Solvation  Ediel_sol  =         0.00000000
  ---------------------------------------------------
  free energy    TOTEN  =       -64.75873505 eV

  energy without entropy =      -64.75873505  energy(sigma->0) =      -64.75873505


--------------------------------------------------------------------------------------------------------




--------------------------------------- Iteration      1(   5)  ---------------------------------------


     EDDAV:  cpu time    1.1884: real time    1.1896
       DOS:  cpu time    0.0004: real time    0.0004
    CHARGE:  cpu time    0.0532: real time    0.0532
    MIXING:  cpu time    0.0010: real time    0.0010
    --------------------------------------------
      LOOP:  cpu time    1.2430: real time    1.2443

 eigenvalue-minimisations  :  1480
 total energy-change (2. order) :-0.5656151E-01  (-0.5651942E-01)
 number of electron      60.0000031 magnetization 
 augmentation part       -6.5204127 magnetization 

 Broyden mixing:
  rms(total) = 0.17504E+01    rms(broyden)= 0.17504E+01
  rms(prec ) = 0.17559E+01
  weight for this iteration     100.00

 Free energy of the ion-electron system (eV)
  ---------------------------------------------------
  alpha Z        PSCENC =        30.28014394
  Ewald energy   TEWEN  =     14973.24208224
  -Hartree energ DENC   =    -16928.93300519
  -exchange      EXHF   =         0.00000000
  -V(xc)+E(xc)   XCENC  =        40.33410220
  PAW double counting   =      1677.12035881    -1579.18296132
  entropy T*S    EENTRO =        -0.00000000
  eigenvalues    EBANDS =      -390.18571560
  atomic energy  EATOM  =      2112.50969837
  Solvation  Ediel_sol  =         0.00000000
  ---------------------------------------------------
  free energy    TOTEN  =       -64.81529656 eV

  energy without entropy =      -64.81529656  energy(sigma->0) =      -64.81529656


--------------------------------------------------------------------------------------------------------




--------------------------------------- Iteration      1(   6)  ---------------------------------------


    POTLOK:  cpu time    0.0334: real time    0.0335
    SETDIJ:  cpu time    0.0651: real time    0.0651
     EDDAV:  cpu time    1.0465: real time    1.0474
       DOS:  cpu time    0.0004: real time    0.0004
    CHARGE:  cpu time    0.0521: real time    0.0521
    MIXING:  cpu time    0.0010: real time    0.0010
    --------------------------------------------
      LOOP:  cpu time    1.1985: real time    1.1995

 eigenvalue-minimisations  :  1264
 total energy-change (2. order) : 0.3247775E+00  (-0.1987387E-01)
 number of electron      60.0000031 magnetization 
 augmentation part       -6.4821792 magnetization 

 Broyden mixing:
  rms(total) = 0.10379E+01    rms(broyden)= 0.10379E+01
  rms(prec ) = 0.10411E+01
  weight for this iteration     100.00

 eigenvalues of (default mixing * dielectric matrix)
  average eigenvalue GAMMA=   2.4485
  2.4485

 Free energy of the ion-electron system (eV)
  ---------------------------------------------------
  alpha Z        PSCENC =        30.28014394
  Ewald energy   TEWEN  =     14973.24208224
  -Hartree energ DENC   =    -16941.14512577
  -exchange      EXHF   =         0.00000000
  -V(xc)+E(xc)   XCENC  =        41.37698590
  PAW double counting   =      3126.62798285    -3029.15285438
  entropy T*S    EENTRO =        -0.00000000
  eigenvalues    EBANDS =      -378.22943224
  atomic energy  EATOM  =      2112.50969837
  Solvation  Ediel_sol  =         0.00000000
  ---------------------------------------------------
  free energy    TOTEN  =       -64.49051908 eV

  energy without entropy =      -64.49051908  energy(sigma->0) =      -64.49051908


--------------------------------------------------------------------------------------------------------




--------------------------------------- Iteration      1(   7)  ---------------------------------------


    POTLOK:  cpu time    0.0390: real time    0.0404
    SETDIJ:  cpu time    0.0651: real time    0.0651
     EDDAV:  cpu time    1.0094: real time    1.0103
       DOS:  cpu time    0.0005: real time    0.0005
    CHARGE:  cpu time    0.0525: real time    0.0525
    MIXING:  cpu time    0.0010: real time    0.0010
    --------------------------------------------
      LOOP:  cpu time    1.1675: real time    1.1698

 eigenvalue-minimisations  :  1200
 total energy-change (2. order) : 0.1492577E+00  (-0.3611111E-01)
 number of electron      60.0000030 magnetization 
 augmentation part       -6.4357015 magnetization 

 Broyden mixing:
  rms(total) = 0.43654E-01    rms(broyden)= 0.43654E-01
  rms(prec ) = 0.44983E-01
  weight for this iteration     100.00

 eigenvalues of (default mixing * dielectric matrix)
  average eigenvalue GAMMA=   2.0524
  1.5788  2.5261

 Free energy of the ion-electron system (eV)
  ---------------------------------------------------
  alpha Z        PSCENC =        30.28014394
  Ewald energy   TEWEN  =     14973.24208224
  -Hartree energ DENC   =    -16959.82621178
  -exchange      EXHF   =         0.00000000
  -V(xc)+E(xc)   XCENC  =        43.06878375
  PAW double counting   =      6221.98247069    -6125.07307478
  entropy T*S    EENTRO =        -0.00000024
  eigenvalues    EBANDS =      -360.52515354
  atomic energy  EATOM  =      2112.50969837
  Solvation  Ediel_sol  =         0.00000000
  ---------------------------------------------------
  free energy    TOTEN  =       -64.34126134 eV

  energy without entropy =      -64.34126111  energy(sigma->0) =      -64.34126123


--------------------------------------------------------------------------------------------------------




--------------------------------------- Iteration      1(   8)  ---------------------------------------


    POTLOK:  cpu time    0.0299: real time    0.0313
    SETDIJ:  cpu time    0.0651: real time    0.0651
     EDDAV:  cpu time    1.0443: real time    1.0575
       DOS:  cpu time    0.0005: real time    0.0005
    CHARGE:  cpu time    0.0591: real time    0.0591
    MIXING:  cpu time    0.0010: real time    0.0010
    --------------------------------------------
      LOOP:  cpu time    1.1998: real time    1.2144

 eigenvalue-minimisations  :  1232
 total energy-change (2. order) : 0.2817960E-03  (-0.3186579E-02)
 number of electron      60.0000030 magnetization 
 augmentation part       -6.4460041 magnetization 

 Broyden mixing:
  rms(total) = 0.23117E-01    rms(broyden)= 0.23117E-01
  rms(prec ) = 0.23811E-01
  weight for this iteration     100.00

 eigenvalues of (default mixing * dielectric matrix)
  average eigenvalue GAMMA=   1.6017
  2.5254  1.1398  1.1398

 Free energy of the ion-electron system (eV)
  ---------------------------------------------------
  alpha Z        PSCENC =        30.28014394
  Ewald energy   TEWEN  =     14973.24208224
  -Hartree energ DENC   =    -16961.04975680
  -exchange      EXHF   =         0.00000000
  -V(xc)+E(xc)   XCENC  =        43.09899687
  PAW double counting   =      6325.68077221    -6228.69888066
  entropy T*S    EENTRO =        -0.00000006
  eigenvalues    EBANDS =      -359.40403566
  atomic energy  EATOM  =      2112.50969837
  Solvation  Ediel_sol  =         0.00000000
  ---------------------------------------------------
  free energy    TOTEN  =       -64.34097955 eV

  energy without entropy =      -64.34097948  energy(sigma->0) =      -64.34097952


--------------------------------------------------------------------------------------------------------




--------------------------------------- Iteration      1(   9)  ---------------------------------------


    POTLOK:  cpu time    0.0303: real time    0.0318
    SETDIJ:  cpu time    0.0651: real time    0.0651
     EDDAV:  cpu time    1.1236: real time    1.1245
       DOS:  cpu time    0.0005: real time    0.0005
    CHARGE:  cpu time    0.0542: real time    0.0542
    MIXING:  cpu time    0.0010: real time    0.0010
    --------------------------------------------
      LOOP:  cpu time    1.2746: real time    1.2770

 eigenvalue-minimisations  :  1432
 total energy-change (2. order) : 0.3998159E-04  (-0.1753062E-03)
 number of electron      60.0000030 magnetization 
 augmentation part       -6.4463226 magnetization 

 Broyden mixing:
  rms(total) = 0.19421E-01    rms(broyden)= 0.19421E-01
  rms(prec ) = 0.20013E-01
  weight for this iteration     100.00

 eigenvalues of (default mixing * dielectric matrix)
  average eigenvalue GAMMA=   1.8374
  2.2798  2.2798  1.3951  1.3951

 Free energy of the ion-electron system (eV)
  ---------------------------------------------------
  alpha Z        PSCENC =        30.28014394
  Ewald energy   TEWEN  =     14973.24208224
  -Hartree energ DENC   =    -16961.85078642
  -exchange      EXHF   =         0.00000000
  -V(xc)+E(xc)   XCENC  =        43.10852255
  PAW double counting   =      6326.43873470    -6229.44965255
  entropy T*S    EENTRO =        -0.00000006
  eigenvalues    EBANDS =      -358.61968233
  atomic energy  EATOM  =      2112.50969837
  Solvation  Ediel_sol  =         0.00000000
  ---------------------------------------------------
  free energy    TOTEN  =       -64.34093957 eV

  energy without entropy =      -64.34093950  energy(sigma->0) =      -64.34093953


--------------------------------------------------------------------------------------------------------




--------------------------------------- Iteration      1(  10)  ---------------------------------------


    POTLOK:  cpu time    0.0299: real time    0.0314
    SETDIJ:  cpu time    0.0650: real time    0.0651
     EDDAV:  cpu time    0.9820: real time    0.9830
       DOS:  cpu time    0.0005: real time    0.0005
    CHARGE:  cpu time    0.0528: real time    0.0528
    MIXING:  cpu time    0.0010: real time    0.0010
    --------------------------------------------
      LOOP:  cpu time    1.1312: real time    1.1337

 eigenvalue-minimisations  :  1192
 total energy-change (2. order) : 0.2589658E-03  (-0.3843604E-04)
 number of electron      60.0000030 magnetization 
 augmentation part       -6.4475865 magnetization 

 Broyden mixing:
  rms(total) = 0.14596E-01    rms(broyden)= 0.14596E-01
  rms(prec ) = 0.15070E-01
  weight for this iteration     100.00

 eigenvalues of (default mixing * dielectric matrix)
  average eigenvalue GAMMA=   1.7758
  2.5336  2.5336  1.5803  1.1157  1.1157

 Free energy of the ion-electron system (eV)
  ---------------------------------------------------
  alpha Z        PSCENC =        30.28014394
  Ewald energy   TEWEN  =     14973.24208224
  -Hartree energ DENC   =    -16962.88934627
  -exchange      EXHF   =         0.00000000
  -V(xc)+E(xc)   XCENC  =        43.09233372
  PAW double counting   =      6250.98180384    -6153.96817728
  entropy T*S    EENTRO =        -0.00000004
  eigenvalues    EBANDS =      -357.58921913
  atomic energy  EATOM  =      2112.50969837
  Solvation  Ediel_sol  =         0.00000000
  ---------------------------------------------------
  free energy    TOTEN  =       -64.34068060 eV

  energy without entropy =      -64.34068056  energy(sigma->0) =      -64.34068058


--------------------------------------------------------------------------------------------------------




--------------------------------------- Iteration      1(  11)  ---------------------------------------


    POTLOK:  cpu time    0.0308: real time    0.0322
    SETDIJ:  cpu time    0.0651: real time    0.0651
     EDDAV:  cpu time    1.0162: real time    1.0173
       DOS:  cpu time    0.0005: real time    0.0005
    CHARGE:  cpu time    0.0521: real time    0.0521
    MIXING:  cpu time    0.0011: real time    0.0011
    --------------------------------------------
      LOOP:  cpu time    1.1657: real time    1.1682

 eigenvalue-minimisations  :  1256
 total energy-change (2. order) : 0.2655256E-03  (-0.3955271E-04)
 number of electron      60.0000030 magnetization 
 augmentation part       -6.4471784 magnetization 

 Broyden mixing:
  rms(total) = 0.44084E-02    rms(broyden)= 0.44084E-02
  rms(prec ) = 0.49684E-02
  weight for this iteration     100.00

 eigenvalues of (default mixing * dielectric matrix)
  average eigenvalue GAMMA=   1.6295
  2.5531  2.5531  1.4932  0.9603  1.1087  1.1087

 Free energy of the ion-electron system (eV)
  ---------------------------------------------------
  alpha Z        PSCENC =        30.28014394
  Ewald energy   TEWEN  =     14973.24208224
  -Hartree energ DENC   =    -16964.78665766
  -exchange      EXHF   =         0.00000000
  -V(xc)+E(xc)   XCENC  =        43.12446229
  PAW double counting   =      6272.19271048    -6175.17375378
  entropy T*S    EENTRO =        -0.00000005
  eigenvalues    EBANDS =      -355.72910090
  atomic energy  EATOM  =      2112.50969837
  Solvation  Ediel_sol  =         0.00000000
  ---------------------------------------------------
  free energy    TOTEN  =       -64.34041507 eV

  energy without entropy =      -64.34041503  energy(sigma->0) =      -64.34041505


--------------------------------------------------------------------------------------------------------




--------------------------------------- Iteration      1(  12)  ---------------------------------------


    POTLOK:  cpu time    0.0302: real time    0.0321
    SETDIJ:  cpu time    0.0651: real time    0.0651
     EDDAV:  cpu time    1.1209: real time    1.1222
       DOS:  cpu time    0.0005: real time    0.0005
    CHARGE:  cpu time    0.0528: real time    0.0528
    MIXING:  cpu time    0.0011: real time    0.0011
    --------------------------------------------
      LOOP:  cpu time    1.2706: real time    1.2738

 eigenvalue-minimisations  :  1224
 total energy-change (2. order) :-0.8236996E-04  (-0.5618186E-05)
 number of electron      60.0000030 magnetization 
 augmentation part       -6.4471225 magnetization 

 Broyden mixing:
  rms(total) = 0.15330E-02    rms(broyden)= 0.15330E-02
  rms(prec ) = 0.23497E-02
  weight for this iteration     100.00

 eigenvalues of (default mixing * dielectric matrix)
  average eigenvalue GAMMA=   1.7711
  2.9855  2.4885  1.6837  1.6837  1.0979  1.2292  1.2292

 Free energy of the ion-electron system (eV)
  ---------------------------------------------------
  alpha Z        PSCENC =        30.28014394
  Ewald energy   TEWEN  =     14973.24208224
  -Hartree energ DENC   =    -16965.50418092
  -exchange      EXHF   =         0.00000000
  -V(xc)+E(xc)   XCENC  =        43.12964282
  PAW double counting   =      6277.42840856    -6180.40961396
  entropy T*S    EENTRO =        -0.00000005
  eigenvalues    EBANDS =      -355.01667844
  atomic energy  EATOM  =      2112.50969837
  Solvation  Ediel_sol  =         0.00000000
  ---------------------------------------------------
  free energy    TOTEN  =       -64.34049744 eV

  energy without entropy =      -64.34049739  energy(sigma->0) =      -64.34049742


--------------------------------------------------------------------------------------------------------




--------------------------------------- Iteration      1(  13)  ---------------------------------------


    POTLOK:  cpu time    0.0315: real time    0.0334
    SETDIJ:  cpu time    0.0651: real time    0.0651
     EDDAV:  cpu time    0.9347: real time    0.9357
       DOS:  cpu time    0.0005: real time    0.0005
    CHARGE:  cpu time    0.0549: real time    0.0549
    MIXING:  cpu time    0.0011: real time    0.0011
    --------------------------------------------
      LOOP:  cpu time    1.0877: real time    1.0907

 eigenvalue-minimisations  :  1096
 total energy-change (2. order) :-0.2121882E-03  (-0.7862690E-05)
 number of electron      60.0000030 magnetization 
 augmentation part       -6.4468713 magnetization 

 Broyden mixing:
  rms(total) = 0.32347E-02    rms(broyden)= 0.32347E-02
  rms(prec ) = 0.33731E-02
  weight for this iteration     100.00

 eigenvalues of (default mixing * dielectric matrix)
  average eigenvalue GAMMA=   1.8141
  3.7125  2.5175  2.3277  1.6531  1.1139  1.1139  1.0372  1.0372

 Free energy of the ion-electron system (eV)
  ---------------------------------------------------
  alpha Z        PSCENC =        30.28014394
  Ewald energy   TEWEN  =     14973.24208224
  -Hartree energ DENC   =    -16966.82030968
  -exchange      EXHF   =         0.00000000
  -V(xc)+E(xc)   XCENC  =        43.14005439
  PAW double counting   =      6284.26068244    -6187.24156744
  entropy T*S    EENTRO =        -0.00000006
  eigenvalues    EBANDS =      -353.71149382
  atomic energy  EATOM  =      2112.50969837
  Solvation  Ediel_sol  =         0.00000000
  ---------------------------------------------------
  free energy    TOTEN  =       -64.34070963 eV

  energy without entropy =      -64.34070957  energy(sigma->0) =      -64.34070960


--------------------------------------------------------------------------------------------------------




--------------------------------------- Iteration      1(  14)  ---------------------------------------


    POTLOK:  cpu time    0.0322: real time    0.0342
    SETDIJ:  cpu time    0.0651: real time    0.0651
     EDDAV:  cpu time    0.9140: real time    0.9149
       DOS:  cpu time    0.0005: real time    0.0005
    CHARGE:  cpu time    0.0677: real time    0.0677
    MIXING:  cpu time    0.0013: real time    0.0013
    --------------------------------------------
      LOOP:  cpu time    1.0808: real time    1.0837

 eigenvalue-minimisations  :  1016
 total energy-change (2. order) :-0.1659140E-03  (-0.2662055E-05)
 number of electron      60.0000030 magnetization 
 augmentation part       -6.4467453 magnetization 

 Broyden mixing:
  rms(total) = 0.30436E-02    rms(broyden)= 0.30436E-02
  rms(prec ) = 0.31068E-02
  weight for this iteration     100.00

 eigenvalues of (default mixing * dielectric matrix)
  average eigenvalue GAMMA=   1.6263
  3.6142  2.4156  2.4156  1.6681  1.1325  1.1325  1.0305  1.0305  0.1969

 Free energy of the ion-electron system (eV)
  ---------------------------------------------------
  alpha Z        PSCENC =        30.28014394
  Ewald energy   TEWEN  =     14973.24208224
  -Hartree energ DENC   =    -16967.38438673
  -exchange      EXHF   =         0.00000000
  -V(xc)+E(xc)   XCENC  =        43.14219758
  PAW double counting   =      6282.20296159    -6185.18400024
  entropy T*S    EENTRO =        -0.00000006
  eigenvalues    EBANDS =      -353.14957223
  atomic energy  EATOM  =      2112.50969837
  Solvation  Ediel_sol  =         0.00000000
  ---------------------------------------------------
  free energy    TOTEN  =       -64.34087555 eV

  energy without entropy =      -64.34087548  energy(sigma->0) =      -64.34087551


--------------------------------------------------------------------------------------------------------




--------------------------------------- Iteration      1(  15)  ---------------------------------------


    POTLOK:  cpu time    0.0341: real time    0.0343
    SETDIJ:  cpu time    0.0657: real time    0.0659
     EDDAV:  cpu time    0.8215: real time    0.8223
       DOS:  cpu time    0.0005: real time    0.0005
    CHARGE:  cpu time    0.0537: real time    0.0539
    MIXING:  cpu time    0.0013: real time    0.0013
    --------------------------------------------
      LOOP:  cpu time    0.9767: real time    0.9781

 eigenvalue-minimisations  :   768
 total energy-change (2. order) :-0.3612105E-04  (-0.2297728E-06)
 number of electron      60.0000030 magnetization 
 augmentation part       -6.4467616 magnetization 

 Broyden mixing:
  rms(total) = 0.21860E-02    rms(broyden)= 0.21860E-02
  rms(prec ) = 0.22646E-02
  weight for this iteration     100.00

 eigenvalues of (default mixing * dielectric matrix)
  average eigenvalue GAMMA=   2.0146
  5.3713  2.7783  2.5259  1.8649  1.8649  1.3545  1.3545  1.0806  0.9755  0.9755

 Free energy of the ion-electron system (eV)
  ---------------------------------------------------
  alpha Z        PSCENC =        30.28014394
  Ewald energy   TEWEN  =     14973.24208224
  -Hartree energ DENC   =    -16967.40645910
  -exchange      EXHF   =         0.00000000
  -V(xc)+E(xc)   XCENC  =        43.14171090
  PAW double counting   =      6280.70971555    -6183.69074946
  entropy T*S    EENTRO =        -0.00000006
  eigenvalues    EBANDS =      -353.12705404
  atomic energy  EATOM  =      2112.50969837
  Solvation  Ediel_sol  =         0.00000000
  ---------------------------------------------------
  free energy    TOTEN  =       -64.34091167 eV

  energy without entropy =      -64.34091160  energy(sigma->0) =      -64.34091164


--------------------------------------------------------------------------------------------------------




--------------------------------------- Iteration      1(  16)  ---------------------------------------


    POTLOK:  cpu time    0.0319: real time    0.0337
    SETDIJ:  cpu time    0.0656: real time    0.0656
     EDDAV:  cpu time    0.8786: real time    0.8794
       DOS:  cpu time    0.0005: real time    0.0005
    CHARGE:  cpu time    0.0535: real time    0.0535
    MIXING:  cpu time    0.0015: real time    0.0015
    --------------------------------------------
      LOOP:  cpu time    1.0316: real time    1.0342

 eigenvalue-minimisations  :   976
 total energy-change (2. order) :-0.2566146E-03  (-0.2496758E-05)
 number of electron      60.0000030 magnetization 
 augmentation part       -6.4466937 magnetization 

 Broyden mixing:
  rms(total) = 0.18270E-02    rms(broyden)= 0.18270E-02
  rms(prec ) = 0.18366E-02
  weight for this iteration     100.00

 eigenvalues of (default mixing * dielectric matrix)
  average eigenvalue GAMMA=   1.9910
  6.5839  2.7793  2.3415  1.9371  1.9371  1.3177  1.3177  1.0998  0.8413  0.8728
  0.8728

 Free energy of the ion-electron system (eV)
  ---------------------------------------------------
  alpha Z        PSCENC =        30.28014394
  Ewald energy   TEWEN  =     14973.24208224
  -Hartree energ DENC   =    -16968.08553829
  -exchange      EXHF   =         0.00000000
  -V(xc)+E(xc)   XCENC  =        43.14185570
  PAW double counting   =      6273.56465892    -6176.54536344
  entropy T*S    EENTRO =        -0.00000007
  eigenvalues    EBANDS =      -352.44870567
  atomic energy  EATOM  =      2112.50969837
  Solvation  Ediel_sol  =         0.00000000
  ---------------------------------------------------
  free energy    TOTEN  =       -64.34116828 eV

  energy without entropy =      -64.34116822  energy(sigma->0) =      -64.34116825


--------------------------------------------------------------------------------------------------------




--------------------------------------- Iteration      1(  17)  ---------------------------------------


    POTLOK:  cpu time    0.0315: real time    0.0330
    SETDIJ:  cpu time    0.0656: real time    0.0656
     EDDAV:  cpu time    0.7697: real time    0.7706
       DOS:  cpu time    0.0005: real time    0.0005
    CHARGE:  cpu time    0.0535: real time    0.0535
    MIXING:  cpu time    0.0015: real time    0.0015
    --------------------------------------------
      LOOP:  cpu time    0.9222: real time    0.9247

 eigenvalue-minimisations  :   816
 total energy-change (2. order) :-0.1481833E-04  (-0.2076434E-06)
 number of electron      60.0000030 magnetization 
 augmentation part       -6.4467106 magnetization 

 Broyden mixing:
  rms(total) = 0.15087E-02    rms(broyden)= 0.15087E-02
  rms(prec ) = 0.15152E-02
  weight for this iteration     100.00

 eigenvalues of (default mixing * dielectric matrix)
  average eigenvalue GAMMA=   1.8342
  6.5613  2.7517  2.2770  1.9196  1.9196  1.2943  1.2943  1.1532  0.7702  0.7702
  0.6492  0.6492

 Free energy of the ion-electron system (eV)
  ---------------------------------------------------
  alpha Z        PSCENC =        30.28014394
  Ewald energy   TEWEN  =     14973.24208224
  -Hartree energ DENC   =    -16968.17171319
  -exchange      EXHF   =         0.00000000
  -V(xc)+E(xc)   XCENC  =        43.14197236
  PAW double counting   =      6273.84876042    -6176.82928421
  entropy T*S    EENTRO =        -0.00000007
  eigenvalues    EBANDS =      -352.36284295
  atomic energy  EATOM  =      2112.50969837
  Solvation  Ediel_sol  =         0.00000000
  ---------------------------------------------------
  free energy    TOTEN  =       -64.34118310 eV

  energy without entropy =      -64.34118303  energy(sigma->0) =      -64.34118307


--------------------------------------------------------------------------------------------------------




--------------------------------------- Iteration      1(  18)  ---------------------------------------


    POTLOK:  cpu time    0.0326: real time    0.0328
    SETDIJ:  cpu time    0.0657: real time    0.0657
     EDDAV:  cpu time    0.7365: real time    0.7374
       DOS:  cpu time    0.0004: real time    0.0004
    --------------------------------------------
      LOOP:  cpu time    0.9193: real time    0.9204

 eigenvalue-minimisations  :   768
 total energy-change (2. order) :-0.4331816E-05  (-0.3904206E-07)
 number of electron      60.0000030 magnetization 
 augmentation part       -6.4467106 magnetization 

 Free energy of the ion-electron system (eV)
  ---------------------------------------------------
  alpha Z        PSCENC =        30.28014394
  Ewald energy   TEWEN  =     14973.24208224
  -Hartree energ DENC   =    -16968.17578958
  -exchange      EXHF   =         0.00000000
  -V(xc)+E(xc)   XCENC  =        43.14203723
  PAW double counting   =      6274.31772095    -6177.29820716
  entropy T*S    EENTRO =        -0.00000007
  eigenvalues    EBANDS =      -352.35887335
  atomic energy  EATOM  =      2112.50969837
  Solvation  Ediel_sol  =         0.00000000
  ---------------------------------------------------
  free energy    TOTEN  =       -64.34118743 eV

  energy without entropy =      -64.34118737  energy(sigma->0) =      -64.34118740


--------------------------------------------------------------------------------------------------------




 the core state eigenenergies are
   1-  1s  -2078.3882  2s   -168.4203  2p   -118.9058
   2-  1s  -2078.3882  2s   -168.4203  2p   -118.9058
   3-  1s  -2078.4471  2s   -168.4733  2p   -118.9593
   4-  1s  -2078.4471  2s   -168.4733  2p   -118.9593
   5-  1s  -2078.4778  2s   -168.5046  2p   -118.9906
   6-  1s  -2078.4778  2s   -168.5046  2p   -118.9906
   7-  1s  -2078.4778  2s   -168.5046  2p   -118.9906
   8-  1s  -2078.4778  2s   -168.5046  2p   -118.9906
   9-  1s  -2078.4471  2s   -168.4733  2p   -118.9593
  10-  1s  -2078.4471  2s   -168.4733  2p   -118.9593
  11-  1s  -2078.3882  2s   -168.4203  2p   -118.9058
  12-  1s  -2078.3882  2s   -168.4203  2p   -118.9058
 
 E-fermi :   0.9389     XC(G=0):  -5.1344     alpha+bet : -5.5572


 k-point     1 :       0.0000    0.0000    0.0000
  band No.  band energies     occupation 
      1     -14.8547      2.00000
      2     -14.7344      2.00000
      3     -14.6657      2.00000
      4     -12.3737      2.00000
      5     -12.1279      2.00000
      6     -11.9481      2.00000
      7      -8.6066      2.00000
      8      -8.5224      2.00000
      9      -8.4922      2.00000
     10      -5.9246      2.00000
     11      -5.5458      2.00000
     12      -5.1275      2.00000
     13      -4.5054      2.00000
     14      -4.5053      2.00000
     15      -4.1877      2.00000
     16      -4.1435      2.00000
     17      -3.9961      2.00000
     18      -3.9220      2.00000
     19      -3.3942      2.00000
     20      -3.2934      2.00000
     21      -3.2436      2.00000
     22      -1.8803      2.00000
     23      -1.7370      2.00000
     24      -1.6251      2.00000
     25      -1.5899      2.00000
     26      -1.5049      2.00000
     27      -1.1084      2.00000
     28      -0.2501      2.00000
     29       0.3537      2.00000
     30       0.9091      1.99997
     31       0.9687      0.00003
     32       1.4964      0.00000
     33       1.5223      0.00000
     34       1.6968      0.00000
     35       1.7045      0.00000
     36       1.8603      0.00000
     37       2.7296      0.00000
     38       2.9001      0.00000
     39       2.9710      0.00000
     40       3.6947      0.00000

 k-point     2 :       0.1667    0.0000    0.0000
  band No.  band energies     occupation 
      1     -14.5312      2.00000
      2     -14.4121      2.00000
      3     -14.3446      2.00000
      4     -12.0370      2.00000
      5     -11.7926      2.00000
      6     -11.6139      2.00000
      7      -8.8993      2.00000
      8      -8.8382      2.00000
      9      -8.8321      2.00000
     10      -5.6516      2.00000
     11      -5.2804      2.00000
     12      -4.9727      2.00000
     13      -4.8916      2.00000
     14      -4.8852      2.00000
     15      -4.8536      2.00000
     16      -4.4289      2.00000
     17      -4.3556      2.00000
     18      -4.3448      2.00000
     19      -4.2193      2.00000
     20      -3.8748      2.00000
     21      -3.7306      2.00000
     22      -2.6620      2.00000
     23      -2.5116      2.00000
     24      -2.3464      2.00000
     25      -1.7422      2.00000
     26      -1.4709      2.00000
     27      -0.9684      2.00000
     28      -0.2141      2.00000
     29       0.1863      2.00000
     30       0.4566      2.00000
     31       1.2520      0.00000
     32       1.6566      0.00000
     33       1.8810      0.00000
     34       2.3385      0.00000
     35       2.5505      0.00000
     36       2.5749      0.00000
     37       3.7493      0.00000
     38       3.8749      0.00000
     39       3.9795      0.00000
     40       4.2528      0.00000

 k-point     3 :       0.3333    0.0000    0.0000
  band No.  band energies     occupation 
      1     -13.5781      2.00000
      2     -13.4631      2.00000
      3     -13.4001      2.00000
      4     -11.0354      2.00000
      5     -10.7957      2.00000
      6     -10.6207      2.00000
      7     -10.2418      2.00000
      8     -10.1625      2.00000
      9     -10.1375      2.00000
     10      -7.2215      2.00000
     11      -7.0252      2.00000
     12      -6.8871      2.00000
     13      -4.9309      2.00000
     14      -4.9060      2.00000
     15      -4.8498      2.00000
     16      -4.8406      2.00000
     17      -4.6055      2.00000
     18      -4.3161      2.00000
     19      -3.4264      2.00000
     20      -3.1571      2.00000
     21      -3.0341      2.00000
     22      -2.6860      2.00000
     23      -2.3964      2.00000
     24      -2.1621      2.00000
     25      -1.7911      2.00000
     26      -1.5220      2.00000
     27      -1.1904      2.00000
     28      -0.8935      2.00000
     29      -0.7537      2.00000
     30      -0.6903      2.00000
     31       1.1107      0.00000
     32       1.1721      0.00000
     33       1.4338      0.00000
     34       2.0730      0.00000
     35       2.2847      0.00000
     36       2.6022      0.00000
     37       2.6454      0.00000
     38       2.6614      0.00000
     39       2.6688      0.00000
     40       2.9546      0.00000

 k-point     4 :       0.5000    0.0000    0.0000
  band No.  band energies     occupation 
      1     -12.0675      2.00000
      2     -12.0675      2.00000
      3     -11.9626      2.00000
      4     -11.9626      2.00000
      5     -11.9102      2.00000
      6     -11.9102      2.00000
      7      -9.4001      2.00000
      8      -9.4001      2.00000
      9      -9.1714      2.00000
     10      -9.1714      2.00000
     11      -9.0052      2.00000
     12      -9.0052      2.00000
     13      -4.4699      2.00000
     14      -4.4699      2.00000
     15      -4.3355      2.00000
     16      -4.3355      2.00000
     17      -4.2899      2.00000
     18      -4.2899      2.00000
     19      -2.4677      2.00000
     20      -2.4677      2.00000
     21      -2.3940      2.00000
     22      -2.3940      2.00000
     23      -2.3936      2.00000
     24      -2.3936      2.00000
     25      -2.0109      2.00000
     26      -2.0109      2.00000
     27      -1.7402      2.00000
     28      -1.7402      2.00000
     29      -1.4881      2.00000
     30      -1.4881      2.00000
     31       1.6187      0.00000
     32       1.6187      0.00000
     33       1.6313      0.00000
     34       1.6313      0.00000
     35       1.7132      0.00000
     36       1.7132      0.00000
     37       2.1546      0.00000
     38       2.1552      0.00000
     39       2.1911      0.00000
     40       2.1914      0.00000

 k-point     5 :       0.0000    0.0000    0.2500
  band No.  band energies     occupation 
      1     -14.5032      2.00000
      2     -14.3902      2.00000
      3     -14.3292      2.00000
      4     -12.5961      2.00000
      5     -12.4622      2.00000
      6     -12.4016      2.00000
      7      -9.0059      2.00000
      8      -8.8491      2.00000
      9      -8.7266      2.00000
     10      -6.9122      2.00000
     11      -6.6393      2.00000
     12      -6.4714      2.00000
     13      -4.5490      2.00000
     14      -4.0381      2.00000
     15      -3.3761      2.00000
     16      -3.1170      2.00000
     17      -3.0638      2.00000
     18      -3.0246      2.00000
     19      -2.9838      2.00000
     20      -2.7188      2.00000
     21      -2.7179      2.00000
     22      -1.8654      2.00000
     23      -1.7648      2.00000
     24      -1.7338      2.00000
     25      -1.7262      2.00000
     26      -1.0751      2.00000
     27      -0.4263      2.00000
     28      -0.2676      2.00000
     29      -0.2050      2.00000
     30      -0.0275      2.00000
     31       1.6791      0.00000
     32       2.0056      0.00000
     33       2.1136      0.00000
     34       2.2068      0.00000
     35       2.2568      0.00000
     36       2.2601      0.00000
     37       2.3677      0.00000
     38       2.7082      0.00000
     39       3.2540      0.00000
     40       3.3189      0.00000

 k-point     6 :       0.1667    0.0000    0.2500
  band No.  band energies     occupation 
      1     -14.1844      2.00000
      2     -14.0726      2.00000
      3     -14.0129      2.00000
      4     -12.2802      2.00000
      5     -12.1507      2.00000
      6     -12.0942      2.00000
      7      -9.0396      2.00000
      8      -8.8873      2.00000
      9      -8.7741      2.00000
     10      -6.7962      2.00000
     11      -6.5666      2.00000
     12      -6.4199      2.00000
     13      -4.9862      2.00000
     14      -4.8455      2.00000
     15      -4.7166      2.00000
     16      -4.5118      2.00000
     17      -4.0379      2.00000
     18      -3.7239      2.00000
     19      -3.3133      2.00000
     20      -3.1979      2.00000
     21      -2.9144      2.00000
     22      -2.3360      2.00000
     23      -2.1652      2.00000
     24      -2.1438      2.00000
     25      -1.4993      2.00000
     26      -0.9518      2.00000
     27      -0.8612      2.00000
     28      -0.7310      2.00000
     29      -0.4607      2.00000
     30      -0.4125      2.00000
     31       2.0275      0.00000
     32       2.3124      0.00000
     33       2.5877      0.00000
     34       2.8629      0.00000
     35       3.0133      0.00000
     36       3.0652      0.00000
     37       3.3732      0.00000
     38       3.4976      0.00000
     39       3.6077      0.00000
     40       4.3373      0.00000

 k-point     7 :       0.3333    0.0000    0.2500
  band No.  band energies     occupation 
      1     -13.2534      2.00000
      2     -13.1462      2.00000
      3     -13.0914      2.00000
      4     -11.4368      2.00000
      5     -11.3344      2.00000
      6     -11.3015      2.00000
      7      -9.7502      2.00000
      8      -9.5900      2.00000
      9      -9.4805      2.00000
     10      -7.5241      2.00000
     11      -7.4370      2.00000
     12      -7.4164      2.00000
     13      -5.8330      2.00000
     14      -5.6652      2.00000
     15      -5.5320      2.00000
     16      -4.7975      2.00000
     17      -4.7532      2.00000
     18      -4.6781      2.00000
     19      -3.3918      2.00000
     20      -3.3110      2.00000
     21      -3.1776      2.00000
     22      -2.5127      2.00000
     23      -2.3685      2.00000
     24      -2.3640      2.00000
     25      -2.2361      2.00000
     26      -1.8480      2.00000
     27      -1.3304      2.00000
     28      -0.9601      2.00000
     29      -0.6601      2.00000
     30      -0.6242      2.00000
     31       1.7034      0.00000
     32       1.8315      0.00000
     33       2.0264      0.00000
     34       2.5145      0.00000
     35       2.7049      0.00000
     36       2.9610      0.00000
     37       3.1521      0.00000
     38       3.3300      0.00000
     39       3.3719      0.00000
     40       3.8757      0.00000

 k-point     8 :       0.5000    0.0000    0.2500
  band No.  band energies     occupation 
      1     -11.8545      2.00000
      2     -11.8545      2.00000
      3     -11.7626      2.00000
      4     -11.7626      2.00000
      5     -11.7243      2.00000
      6     -11.7243      2.00000
      7      -9.4309      2.00000
      8      -9.4309      2.00000
      9      -9.2731      2.00000
     10      -9.2731      2.00000
     11      -9.1819      2.00000
     12      -9.1819      2.00000
     13      -5.0177      2.00000
     14      -5.0177      2.00000
     15      -4.8280      2.00000
     16      -4.8280      2.00000
     17      -4.6764      2.00000
     18      -4.6764      2.00000
     19      -3.6867      2.00000
     20      -3.6867      2.00000
     21      -3.4422      2.00000
     22      -3.4422      2.00000
     23      -3.3092      2.00000
     24      -3.3092      2.00000
     25      -1.5495      2.00000
     26      -1.5495      2.00000
     27      -1.2059      2.00000
     28      -1.2059      2.00000
     29      -0.9102      2.00000
     30      -0.9102      2.00000
     31       2.0051      0.00000
     32       2.0051      0.00000
     33       2.3080      0.00000
     34       2.3080      0.00000
     35       2.4547      0.00000
     36       2.4547      0.00000
     37       3.1796      0.00000
     38       3.1796      0.00000
     39       3.4036      0.00000
     40       3.4036      0.00000

 k-point     9 :       0.0000    0.0000    0.5000
  band No.  band energies     occupation 
      1     -13.5469      2.00000
      2     -13.5469      2.00000
      3     -13.4771      2.00000
      4     -13.4771      2.00000
      5     -13.4308      2.00000
      6     -13.4308      2.00000
      7      -8.5713      2.00000
      8      -8.5713      2.00000
      9      -8.2547      2.00000
     10      -8.2547      2.00000
     11      -7.9811      2.00000
     12      -7.9811      2.00000
     13      -3.5914      2.00000
     14      -3.5914      2.00000
     15      -2.8285      2.00000
     16      -2.8285      2.00000
     17      -2.4230      2.00000
     18      -2.4230      2.00000
     19      -2.3791      2.00000
     20      -2.3791      2.00000
     21      -2.3339      2.00000
     22      -2.3339      2.00000
     23      -2.0236      2.00000
     24      -2.0236      2.00000
     25      -0.7280      2.00000
     26      -0.7280      2.00000
     27      -0.5201      2.00000
     28      -0.5201      2.00000
     29      -0.4477      2.00000
     30      -0.4477      2.00000
     31       2.1897      0.00000
     32       2.1897      0.00000
     33       2.2332      0.00000
     34       2.2332      0.00000
     35       2.2856      0.00000
     36       2.2856      0.00000
     37       3.4175      0.00000
     38       3.4199      0.00000
     39       3.5670      0.00000
     40       3.5917      0.00000

 k-point    10 :       0.1667    0.0000    0.5000
  band No.  band energies     occupation 
      1     -13.2408      2.00000
      2     -13.2408      2.00000
      3     -13.1713      2.00000
      4     -13.1713      2.00000
      5     -13.1259      2.00000
      6     -13.1259      2.00000
      7      -8.4265      2.00000
      8      -8.4265      2.00000
      9      -8.1362      2.00000
     10      -8.1362      2.00000
     11      -7.8956      2.00000
     12      -7.8956      2.00000
     13      -4.3702      2.00000
     14      -4.3702      2.00000
     15      -4.2641      2.00000
     16      -4.2641      2.00000
     17      -4.1660      2.00000
     18      -4.1660      2.00000
     19      -3.3513      2.00000
     20      -3.3513      2.00000
     21      -2.6380      2.00000
     22      -2.6380      2.00000
     23      -1.9682      2.00000
     24      -1.9682      2.00000
     25      -0.8122      2.00000
     26      -0.8122      2.00000
     27      -0.6452      2.00000
     28      -0.6452      2.00000
     29      -0.4918      2.00000
     30      -0.4918      2.00000
     31       2.8448      0.00000
     32       2.8448      0.00000
     33       2.9829      0.00000
     34       2.9829      0.00000
     35       3.0963      0.00000
     36       3.0963      0.00000
     37       3.5134      0.00000
     38       3.5134      0.00000
     39       3.9742      0.00000
     40       3.9742      0.00000

 k-point    11 :       0.3333    0.0000    0.5000
  band No.  band energies     occupation 
      1     -12.3829      2.00000
      2     -12.3829      2.00000
      3     -12.3154      2.00000
      4     -12.3154      2.00000
      5     -12.2754      2.00000
      6     -12.2754      2.00000
      7      -8.6636      2.00000
      8      -8.6636      2.00000
      9      -8.5140      2.00000
     10      -8.5140      2.00000
     11      -8.4282      2.00000
     12      -8.4282      2.00000
     13      -5.7961      2.00000
     14      -5.7961      2.00000
     15      -5.5448      2.00000
     16      -5.5448      2.00000
     17      -5.3202      2.00000
     18      -5.3202      2.00000
     19      -3.4355      2.00000
     20      -3.4355      2.00000
     21      -3.0690      2.00000
     22      -3.0690      2.00000
     23      -2.7859      2.00000
     24      -2.7859      2.00000
     25      -1.8733      2.00000
     26      -1.8733      2.00000
     27      -1.3277      2.00000
     28      -1.3277      2.00000
     29      -0.8287      2.00000
     30      -0.8287      2.00000
     31       2.6918      0.00000
     32       2.6918      0.00000
     33       3.2785      0.00000
     34       3.2785      0.00000
     35       3.9561      0.00000
     36       3.9570      0.00000
     37       3.9831      0.00000
     38       3.9845      0.00000
     39       4.0926      0.00000
     40       4.1338      0.00000

 k-point    12 :       0.5000    0.0000    0.5000
  band No.  band energies     occupation 
      1     -11.5664      2.00000
      2     -11.5664      2.00000
      3     -11.5106      2.00000
      4     -11.5106      2.00000
      5     -11.5104      2.00000
      6     -11.5104      2.00000
      7      -9.5297      2.00000
      8      -9.5297      2.00000
      9      -9.4664      2.00000
     10      -9.4664      2.00000
     11      -9.4651      2.00000
     12      -9.4651      2.00000
     13      -4.9611      2.00000
     14      -4.9611      2.00000
     15      -4.9464      2.00000
     16      -4.9464      2.00000
     17      -4.6714      2.00000
     18      -4.6714      2.00000
     19      -4.6178      2.00000
     20      -4.6178      2.00000
     21      -4.3756      2.00000
     22      -4.3756      2.00000
     23      -4.3749      2.00000
     24      -4.3749      2.00000
     25      -1.2347      2.00000
     26      -1.2347      2.00000
     27      -1.1806      2.00000
     28      -1.1806      2.00000
     29      -1.0522      2.00000
     30      -1.0522      2.00000
     31       2.6255      0.00000
     32       2.6255      0.00000
     33       2.7585      0.00000
     34       2.7585      0.00000
     35       2.8971      0.00000
     36       2.8971      0.00000
     37       4.8172      0.00000
     38       4.8278      0.00000
     39       4.8647      0.00000
     40       4.8678      0.00000


--------------------------------------------------------------------------------------------------------


 soft charge-density along one line, spin component           1
         0         1         2         3         4         5         6         7         8         9
 total charge-density along one line
 
 pseudopotential strength for first ion, spin component:           1
 29.685  37.031   0.035  -0.033   0.000   0.055  -0.052   0.000
 37.031  46.199   0.044  -0.041   0.000   0.068  -0.064   0.000
  0.035   0.044   6.554   0.006  -0.000  10.135   0.009  -0.000
 -0.033  -0.041   0.006   6.558  -0.000   0.009  10.141  -0.000
  0.000   0.000  -0.000  -0.000   6.562  -0.000  -0.000  10.148
  0.055   0.068  10.135   0.009  -0.000  15.692   0.014  -0.000
 -0.052  -0.064   0.009  10.141  -0.000   0.014  15.701  -0.000
  0.000   0.000  -0.000  -0.000  10.148  -0.000  -0.000  15.711
 total augmentation occupancy for first ion, spin component:           1
  8.275  -4.720   1.854  -1.945   0.000  -0.591   0.649   0.000
 -4.720   3.435  -1.594   1.650   0.000   0.437  -0.477   0.000
  1.854  -1.594   3.130   0.195   0.000  -0.825  -0.162   0.000
 -1.945   1.650   0.195   3.271   0.000  -0.161  -0.923   0.000
  0.000   0.000   0.000   0.000   3.401   0.000   0.000  -1.026
 -0.591   0.437  -0.825  -0.161   0.000   0.259   0.070   0.000
  0.649  -0.477  -0.162  -0.923  -0.000   0.070   0.299  -0.000
  0.000   0.000   0.000   0.000  -1.026   0.000   0.000   0.340


------------------------ aborting loop because EDIFF is reached ----------------------------------------


 


 total charge     
 
# of ion       s       p       d       tot
------------------------------------------
    1        1.082   1.376   0.000   2.458
    2        1.082   1.376   0.000   2.458
    3        1.083   1.372   0.000   2.455
    4        1.083   1.372   0.000   2.455
    5        1.084   1.371   0.000   2.455
    6        1.084   1.371   0.000   2.455
    7        1.084   1.371   0.000   2.455
    8        1.084   1.371   0.000   2.455
    9        1.083   1.372   0.000   2.455
   10        1.083   1.372   0.000   2.455
   11        1.082   1.376   0.000   2.458
   12        1.082   1.376   0.000   2.458
--------------------------------------------------
tot         12.997  16.477   0.000  29.473
 
    CHARGE:  cpu time    0.0528: real time    0.0528
    FORLOC:  cpu time    0.0027: real time    0.0027
    FORNL :  cpu time    0.2136: real time    0.2136
    STRESS:  cpu time    0.3570: real time    0.3570
    FORCOR:  cpu time    0.0326: real time    0.0329
    FORHAR:  cpu time    0.0095: real time    0.0095
    MIXING:  cpu time    0.0015: real time    0.0015
    OFIELD:  cpu time    0.0000: real time    0.0000

  DFT-D2 method for vdW energy calculation
  -------------------------------------------------------------------

  Parameters of vdW forcefield:
         C6(Jnm^6/mol)     R0(A)
   -----------------------------
   P        7.840          1.705

  IVDW =  10
  VDW_RADIUS =    50.000 A
  VDW_S6 =     0.750
  VDW_SR =     1.000
  VDW_D =    20.000
  LVDW_EWALD = F

  Number of pair interactions contributing to vdW energy:   88382
  Edisp (eV):   -2.17394
    FORVDW:  cpu time    0.0523: real time    0.0929

  FORCE on cell =-STRESS in cart. coord.  units (eV):
  Direction    XX          YY          ZZ          XY          YZ          ZX
  --------------------------------------------------------------------------------------
  Alpha Z    30.28014    30.28014    30.28014
  Ewald   16591.01473-18044.25022 16426.47569    -0.00000     0.00000     0.00000
  Hartree 16898.20119-16770.93922 16841.01656    -0.00000    -0.00000    -0.00000
  E(xc)    -201.46931  -202.72810  -201.65962     0.00000    -0.00000    -0.00000
  Local  -34440.89533 33820.46885-34239.56142     0.00000     0.00000    -0.00000
  n-local   679.67837   678.02398   674.50552    -0.00000    -0.00000     1.46281
  augment  -126.46370  -130.49388  -128.84121    -0.00000     0.00000     0.00000
  Kinetic   570.18490   620.11077   600.02927     0.00000    -0.00000     6.08077
  Fock        0.00000     0.00000     0.00000     0.00000     0.00000     0.00000
  vdW        -0.23282    -1.41063    -0.99576    -0.00000    -0.00000     0.00000
  -------------------------------------------------------------------------------------
  Total       0.29818    -0.93832     1.24918     0.00000     0.00000     0.00000
  in kB       1.00198    -3.15303     4.19760     0.00000     0.00000     0.00000
  external pressure =        0.68 kB  Pullay stress =        0.00 kB


 VOLUME and BASIS-vectors are now :
 -----------------------------------------------------------------------------
  energy-cutoff  :      650.00
  volume of cell :      476.80
      direct lattice vectors                 reciprocal lattice vectors
     3.342886000  0.000000000  0.000000000     0.299142717  0.000000000  0.000000000
     0.000000000 32.602409000  0.000000000     0.000000000  0.030672580  0.000000000
     0.000000000  0.000000000  4.374831000     0.000000000  0.000000000  0.228580258

  length of vectors
     3.342886000 32.602409000  4.374831000     0.299142717  0.030672580  0.228580258


 FORCES acting on ions
    electron-ion (+dipol)            ewald-force                    non-local-force                 convergence-correction
 -----------------------------------------------------------------------------------------------
   -.166E-14 0.823E+03 -.291E+02   0.114E-14 -.828E+03 0.342E+02   0.278E-16 0.582E+01 -.517E+01   -.178E-15 0.114E-03 -.327E-03
   -.870E-14 0.823E+03 0.291E+02   -.458E-14 -.828E+03 -.342E+02   0.278E-16 0.582E+01 0.517E+01   -.712E-15 0.114E-03 0.327E-03
   0.127E-14 0.459E+03 0.260E+02   0.181E-14 -.453E+03 -.313E+02   0.278E-16 -.553E+01 0.522E+01   0.431E-16 -.174E-02 -.268E-03
   -.112E-13 0.459E+03 -.260E+02   -.613E-14 -.453E+03 0.313E+02   0.278E-16 -.553E+01 -.522E+01   -.334E-15 -.174E-02 0.268E-03
   -.105E-13 0.183E+03 -.262E+02   0.754E-15 -.189E+03 0.314E+02   0.555E-16 0.546E+01 -.521E+01   -.890E-15 0.277E-02 -.597E-03
   -.133E-14 0.183E+03 0.262E+02   -.638E-14 -.189E+03 -.314E+02   -.278E-16 0.546E+01 0.521E+01   0.646E-15 0.277E-02 0.597E-03
   -.132E-13 -.183E+03 0.262E+02   0.197E-14 0.189E+03 -.314E+02   -.555E-16 -.546E+01 0.521E+01   -.149E-14 -.277E-02 0.597E-03
   0.714E-15 -.183E+03 -.262E+02   -.498E-14 0.189E+03 0.314E+02   0.278E-16 -.546E+01 -.521E+01   0.130E-14 -.277E-02 -.597E-03
   0.381E-15 -.459E+03 -.260E+02   0.911E-15 0.453E+03 0.313E+02   -.278E-16 0.553E+01 -.522E+01   0.820E-15 0.174E-02 0.268E-03
   -.105E-13 -.459E+03 0.260E+02   -.523E-14 0.453E+03 -.313E+02   -.278E-16 0.553E+01 0.522E+01   -.745E-15 0.174E-02 -.268E-03
   -.755E-15 -.823E+03 0.291E+02   0.158E-14 0.828E+03 -.342E+02   -.278E-16 -.582E+01 0.517E+01   -.605E-15 -.114E-03 0.327E-03
   -.103E-13 -.823E+03 -.291E+02   -.679E-14 0.828E+03 0.342E+02   -.278E-16 -.582E+01 -.517E+01   0.196E-15 -.114E-03 -.327E-03
 -----------------------------------------------------------------------------------------------
   -.658E-13 0.545E-11 0.423E-10   -.259E-13 0.000E+00 -.711E-14   0.000E+00 0.000E+00 0.000E+00   -.195E-14 -.125E-11 0.181E-14
 
 
 POSITION                                       TOTAL-FORCE (eV/Angst)
 -----------------------------------------------------------------------------------
      0.00000     10.00001      4.02014         0.000000      0.081619     -0.038599
      1.67144     10.00001      2.54211         0.000000      0.081619      0.038599
      0.00000     12.14332      0.35469         0.000000     -0.077564     -0.021303
      1.67144     12.14332      1.83272         0.000000     -0.077564      0.021303
      1.67144     15.22953      4.02014         0.000000      0.037942      0.002454
      0.00000     15.22953      2.54211         0.000000      0.037942     -0.002454
      1.67144     17.37288      0.35469         0.000000     -0.037942     -0.002454
      0.00000     17.37288      1.83272         0.000000     -0.037942      0.002454
      0.00000     20.45909      4.02014         0.000000      0.077564      0.021303
      1.67144     20.45909      2.54211         0.000000      0.077564     -0.021303
      0.00000     22.60240      0.35469         0.000000     -0.081619      0.038599
      1.67144     22.60240      1.83272         0.000000     -0.081619     -0.038599
 -----------------------------------------------------------------------------------
    total drift:                               -0.000000      0.000000      0.000000


--------------------------------------------------------------------------------------------------------



  FREE ENERGIE OF THE ION-ELECTRON SYSTEM (eV)
  ---------------------------------------------------
  free  energy   TOTEN  =       -66.51512695 eV

  energy  without entropy=      -66.51512689  energy(sigma->0) =      -66.51512692
 


--------------------------------------------------------------------------------------------------------


    POTLOK:  cpu time    0.0955: real time    0.0955


--------------------------------------------------------------------------------------------------------


 writing wavefunctions
     LOOP+:  cpu time   22.9708: real time   23.0904
    4ORBIT:  cpu time    0.0000: real time    0.0000
 


 total charge     
 
# of ion       s       p       d       tot
------------------------------------------
    1        1.082   1.376   0.000   2.458
    2        1.082   1.376   0.000   2.458
    3        1.083   1.372   0.000   2.455
    4        1.083   1.372   0.000   2.455
    5        1.084   1.371   0.000   2.455
    6        1.084   1.371   0.000   2.455
    7        1.084   1.371   0.000   2.455
    8        1.084   1.371   0.000   2.455
    9        1.083   1.372   0.000   2.455
   10        1.083   1.372   0.000   2.455
   11        1.082   1.376   0.000   2.458
   12        1.082   1.376   0.000   2.458
--------------------------------------------------
tot         12.997  16.477   0.000  29.473
 

 total amount of memory used by VASP MPI-rank0    41697. kBytes
=======================================================================

   base      :      30000. kBytes
   nonl-proj :       2184. kBytes
   fftplans  :       2080. kBytes
   grid      :       3027. kBytes
   one-center:          6. kBytes
   wavefun   :       4400. kBytes
 
  
  
 General timing and accounting informations for this job:
 ========================================================
  
                  Total CPU time used (sec):       32.208
                            User time (sec):       25.467
                          System time (sec):        6.741
                         Elapsed time (sec):       32.743
  
                   Maximum memory used (kb):      117504.
                   Average memory used (kb):           0.
  
                          Minor page faults:        45505
                          Major page faults:            0
                 Voluntary context switches:         2559
