       N       E                     dE             d eps       ncg     rms          rms(c)
DAV:   1     0.228750653023E+04    0.22875E+04   -0.86559E+04  1144   0.104E+03
DAV:   2     0.550771815848E+02   -0.22324E+04   -0.21534E+04  1616   0.219E+02
DAV:   3    -0.305505700967E+03   -0.36058E+03   -0.35743E+03  1296   0.908E+01
DAV:   4    -0.319804498192E+03   -0.14299E+02   -0.14160E+02  1416   0.217E+01
DAV:   5    -0.320405582819E+03   -0.60108E+00   -0.59861E+00  1672   0.392E+00    0.388E+01
DAV:   6    -0.319044007491E+03    0.13616E+01   -0.91205E+00  1656   0.905E+00    0.244E+01
DAV:   7    -0.391154162021E+03   -0.72110E+02   -0.24934E+02  1864   0.418E+01    0.262E+01
DAV:   8    -0.310557066755E+03    0.80597E+02   -0.30854E+02  1632   0.399E+01    0.778E+00
DAV:   9    -0.317714237219E+03   -0.71572E+01   -0.11271E+02  1424   0.130E+01    0.527E+00
DAV:  10    -0.318018498390E+03   -0.30426E+00   -0.84607E+00  1520   0.489E+00    0.347E+00
DAV:  11    -0.317867807248E+03    0.15069E+00   -0.51277E-01  1496   0.143E+00    0.284E+00
DAV:  12    -0.317777387614E+03    0.90420E-01   -0.11986E-01  1376   0.730E-01    0.223E+00
DAV:  13    -0.317724704119E+03    0.52683E-01   -0.40531E-02  1440   0.396E-01    0.178E+00
DAV:  14    -0.317638271352E+03    0.86433E-01   -0.39373E-02  1672   0.654E-01    0.129E+00
DAV:  15    -0.317549717804E+03    0.88554E-01   -0.12669E-01  1440   0.115E+00    0.616E-01
DAV:  16    -0.317538615883E+03    0.11102E-01   -0.10114E-01  1320   0.731E-01    0.418E-01
DAV:  17    -0.317538187344E+03    0.42854E-03   -0.29841E-02  1376   0.342E-01    0.350E-01
DAV:  18    -0.317536850614E+03    0.13367E-02   -0.26199E-03  1520   0.131E-01    0.292E-01
DAV:  19    -0.317534515139E+03    0.23355E-02   -0.25476E-03  1904   0.217E-01    0.213E-01
DAV:  20    -0.317533714953E+03    0.80019E-03   -0.32777E-03  1464   0.263E-01    0.156E-01
DAV:  21    -0.317534133640E+03   -0.41869E-03   -0.34333E-03  1320   0.120E-01    0.158E-01
DAV:  22    -0.317534348420E+03   -0.21478E-03   -0.59661E-04  1288   0.464E-02    0.124E-01
DAV:  23    -0.317534599870E+03   -0.25145E-03   -0.71772E-05  1240   0.158E-02    0.105E-01
DAV:  24    -0.317535720597E+03   -0.11207E-02   -0.22617E-04  1280   0.539E-02    0.897E-02
DAV:  25    -0.317536352094E+03   -0.63150E-03   -0.18449E-04  1304   0.347E-02    0.790E-02
DAV:  26    -0.317536679740E+03   -0.32765E-03   -0.87610E-05  1280   0.172E-02    0.649E-02
DAV:  27    -0.317536704937E+03   -0.25197E-04   -0.40282E-06   776   0.772E-03    0.543E-02
DAV:  28    -0.317536966192E+03   -0.26126E-03   -0.28389E-05   944   0.279E-02    0.346E-02
DAV:  29    -0.317537356479E+03   -0.39029E-03   -0.12652E-04  1328   0.451E-02    0.513E-02
DAV:  30    -0.317537401771E+03   -0.45292E-04   -0.64161E-05  1216   0.133E-02    0.572E-02
DAV:  31    -0.317537405228E+03   -0.34571E-05   -0.17693E-06   712   0.311E-03
   1 F= -.32650380E+03 E0= -.32650156E+03  d E =-.326504E+03
       N       E                     dE             d eps       ncg     rms          rms(c)
DAV:   1    -0.317898582887E+03   -0.36118E+00   -0.33959E+01  1160   0.101E+01    0.639E+00
DAV:   2    -0.317973875732E+03   -0.75293E-01   -0.28341E+00  1384   0.371E+00    0.248E+00
DAV:   3    -0.317959390115E+03    0.14486E-01   -0.84303E-01  1424   0.307E+00    0.127E+00
DAV:   4    -0.317882225734E+03    0.77164E-01   -0.26913E-01  1400   0.207E+00    0.666E-01
DAV:   5    -0.317896567521E+03   -0.14342E-01   -0.16045E-01  1456   0.150E+00    0.790E-01
DAV:   6    -0.317867766501E+03    0.28801E-01   -0.14037E-01  1416   0.121E+00    0.406E-01
DAV:   7    -0.317872492861E+03   -0.47264E-02   -0.38864E-02  1264   0.541E-01    0.297E-01
DAV:   8    -0.317870042189E+03    0.24507E-02   -0.77264E-03  1280   0.230E-01    0.204E-01
DAV:   9    -0.317869805917E+03    0.23627E-03   -0.20807E-03  1664   0.836E-02    0.215E-01
DAV:  10    -0.317869974874E+03   -0.16896E-03   -0.15762E-04  1408   0.246E-02    0.255E-01
DAV:  11    -0.317869629885E+03    0.34499E-03   -0.24743E-04  1416   0.452E-02    0.156E-01
DAV:  12    -0.317871170005E+03   -0.15401E-02   -0.37469E-03  1376   0.124E-01    0.302E-01
DAV:  13    -0.317870505478E+03    0.66453E-03   -0.92257E-04  1224   0.601E-02    0.177E-01
DAV:  14    -0.317870475186E+03    0.30292E-04   -0.68665E-05  1240   0.149E-02    0.160E-01
DAV:  15    -0.317870352117E+03    0.12307E-03   -0.26442E-05   776   0.124E-02    0.131E-01
DAV:  16    -0.317870319804E+03    0.32313E-04   -0.31793E-04  1280   0.285E-02    0.455E-02
DAV:  17    -0.317870461856E+03   -0.14205E-03   -0.64947E-05  1256   0.182E-02    0.232E-02
DAV:  18    -0.317870579377E+03   -0.11752E-03   -0.24121E-05   792   0.924E-03    0.196E-02
DAV:  19    -0.317870805758E+03   -0.22638E-03   -0.24662E-05   912   0.125E-02    0.261E-02
DAV:  20    -0.317871099093E+03   -0.29334E-03   -0.89394E-05  1144   0.184E-02    0.436E-02
DAV:  21    -0.317871179865E+03   -0.80772E-04   -0.19721E-05   848   0.741E-03    0.338E-02
DAV:  22    -0.317871219691E+03   -0.39826E-04   -0.23817E-05   744   0.997E-03    0.891E-03
DAV:  23    -0.317871287211E+03   -0.67520E-04   -0.17481E-05   816   0.643E-03    0.176E-02
DAV:  24    -0.317871326712E+03   -0.39501E-04   -0.61126E-06   720   0.571E-03    0.487E-03
DAV:  25    -0.317871352477E+03   -0.25764E-04   -0.27420E-06   656   0.291E-03    0.447E-03
DAV:  26    -0.317871374606E+03   -0.22129E-04   -0.13834E-06   664   0.234E-03    0.373E-03
DAV:  27    -0.317871396767E+03   -0.22161E-04   -0.96453E-07   720   0.118E-03    0.122E-03
DAV:  28    -0.317871404463E+03   -0.76967E-05   -0.27569E-07   624   0.826E-04
   2 F= -.32683953E+03 E0= -.32683697E+03  d E =-.335723E+00
       N       E                     dE             d eps       ncg     rms          rms(c)
DAV:   1    -0.317919640839E+03   -0.48244E-01   -0.21085E+00  1176   0.262E+00    0.138E+00
DAV:   2    -0.317940122665E+03   -0.20482E-01   -0.20353E-01  1448   0.138E+00    0.988E-01
DAV:   3    -0.317938056651E+03    0.20660E-02   -0.23199E-01  1504   0.162E+00    0.480E-01
DAV:   4    -0.317913854064E+03    0.24203E-01   -0.57028E-02  1512   0.899E-01    0.169E-01
DAV:   5    -0.317915677117E+03   -0.18231E-02   -0.16860E-02  1208   0.320E-01    0.284E-01
DAV:   6    -0.317914515524E+03    0.11616E-02   -0.46205E-03  1392   0.210E-01    0.135E-01
DAV:   7    -0.317914869629E+03   -0.35410E-03   -0.11769E-03  1392   0.131E-01    0.159E-01
DAV:   8    -0.317914345266E+03    0.52436E-03   -0.63845E-04  1368   0.792E-02    0.637E-02
DAV:   9    -0.317914562901E+03   -0.21763E-03   -0.37505E-04  1272   0.436E-02    0.788E-02
DAV:  10    -0.317914517220E+03    0.45681E-04   -0.10379E-04  1280   0.275E-02    0.405E-02
DAV:  11    -0.317914562199E+03   -0.44979E-04   -0.29404E-05   968   0.131E-02    0.273E-02
DAV:  12    -0.317914641134E+03   -0.78935E-04   -0.12913E-05   880   0.116E-02    0.204E-02
DAV:  13    -0.317914714870E+03   -0.73737E-04   -0.13630E-05   856   0.671E-03    0.204E-02
DAV:  14    -0.317914754630E+03   -0.39759E-04   -0.35846E-06   760   0.364E-03    0.218E-02
DAV:  15    -0.317914784354E+03   -0.29725E-04   -0.50902E-06   760   0.723E-03    0.116E-02
DAV:  16    -0.317914792052E+03   -0.76974E-05   -0.25071E-06   624   0.305E-03
   3 F= -.32688275E+03 E0= -.32688005E+03  d E =-.378949E+00
       N       E                     dE             d eps       ncg     rms          rms(c)
DAV:   1    -0.318087665230E+03   -0.17288E+00   -0.35448E+00  1104   0.321E+00    0.149E+00
DAV:   2    -0.318078733304E+03    0.89319E-02   -0.24241E-01  1424   0.135E+00    0.108E+00
DAV:   3    -0.318071049780E+03    0.76835E-02   -0.20454E-01  1472   0.161E+00    0.675E-01
DAV:   4    -0.318050703313E+03    0.20346E-01   -0.71765E-02  1448   0.100E+00    0.347E-01
DAV:   5    -0.318053151839E+03   -0.24485E-02   -0.41082E-02  1472   0.742E-01    0.426E-01
DAV:   6    -0.318047338988E+03    0.58129E-02   -0.29980E-02  1464   0.592E-01    0.207E-01
DAV:   7    -0.318044452744E+03    0.28862E-02   -0.80683E-03  1360   0.297E-01    0.107E-01
DAV:   8    -0.318044595774E+03   -0.14303E-03   -0.28036E-03  1224   0.108E-01    0.884E-02
DAV:   9    -0.318044656259E+03   -0.60485E-04   -0.38700E-04  1560   0.361E-02    0.679E-02
DAV:  10    -0.318044684673E+03   -0.28414E-04   -0.22785E-05   800   0.125E-02    0.693E-02
DAV:  11    -0.318044831084E+03   -0.14641E-03   -0.33506E-05   912   0.210E-02    0.522E-02
DAV:  12    -0.318044949706E+03   -0.11862E-03   -0.51025E-05   984   0.151E-02    0.396E-02
DAV:  13    -0.318044987638E+03   -0.37932E-04   -0.14378E-05   704   0.769E-03    0.344E-02
DAV:  14    -0.318045011830E+03   -0.24192E-04   -0.30313E-06   624   0.380E-03    0.298E-02
DAV:  15    -0.318045061261E+03   -0.49431E-04   -0.41179E-06   800   0.586E-03    0.183E-02
DAV:  16    -0.318045133077E+03   -0.71816E-04   -0.86486E-06   752   0.464E-03    0.687E-03
DAV:  17    -0.318045159932E+03   -0.26855E-04   -0.15415E-06   680   0.225E-03    0.451E-03
DAV:  18    -0.318045197343E+03   -0.37411E-04   -0.14695E-06   712   0.190E-03    0.260E-03
DAV:  19    -0.318045266905E+03   -0.69562E-04   -0.75550E-06   760   0.286E-03    0.741E-03
DAV:  20    -0.318045268688E+03   -0.17827E-05   -0.45906E-07   672   0.130E-03
   4 F= -.32696141E+03 E0= -.32695870E+03  d E =-.786547E-01
       N       E                     dE             d eps       ncg     rms          rms(c)
DAV:   1    -0.318093014565E+03   -0.47748E-01   -0.93063E-01  1104   0.164E+00    0.767E-01
DAV:   2    -0.318093346977E+03   -0.33241E-03   -0.62005E-02  1448   0.698E-01    0.576E-01
DAV:   3    -0.318096967227E+03   -0.36203E-02   -0.65989E-02  1520   0.956E-01    0.435E-01
DAV:   4    -0.318085468146E+03    0.11499E-01   -0.33967E-02  1520   0.718E-01    0.233E-01
DAV:   5    -0.318082612892E+03    0.28553E-02   -0.11558E-02  1408   0.392E-01    0.257E-01
DAV:   6    -0.318084824722E+03   -0.22118E-02   -0.91572E-03  1424   0.341E-01    0.192E-01
DAV:   7    -0.318082127114E+03    0.26976E-02   -0.23379E-03  1368   0.168E-01    0.121E-01
DAV:   8    -0.318081588989E+03    0.53812E-03   -0.97094E-04  1464   0.844E-02    0.438E-02
DAV:   9    -0.318081689082E+03   -0.10009E-03   -0.51847E-04  1224   0.440E-02    0.885E-02
DAV:  10    -0.318081654266E+03    0.34816E-04   -0.23678E-05   872   0.154E-02    0.682E-02
DAV:  11    -0.318081870298E+03   -0.21603E-03   -0.16337E-04  1344   0.425E-02    0.744E-02
DAV:  12    -0.318081737215E+03    0.13308E-03   -0.46725E-05   928   0.273E-02    0.267E-02
DAV:  13    -0.318081811649E+03   -0.74434E-04   -0.23423E-05   808   0.134E-02    0.475E-02
DAV:  14    -0.318081773067E+03    0.38582E-04   -0.12654E-05   808   0.137E-02    0.194E-02
DAV:  15    -0.318081783998E+03   -0.10931E-04   -0.85532E-06   864   0.730E-03    0.622E-03
DAV:  16    -0.318081802388E+03   -0.18389E-04   -0.32037E-06   656   0.424E-03    0.109E-02
DAV:  17    -0.318081821817E+03   -0.19429E-04   -0.21017E-06   704   0.475E-03    0.175E-03
DAV:  18    -0.318081854069E+03   -0.32253E-04   -0.28463E-06   744   0.294E-03    0.631E-03
DAV:  19    -0.318081857191E+03   -0.31215E-05   -0.73709E-07   624   0.152E-03
   5 F= -.32697177E+03 E0= -.32696907E+03  d E =-.890187E-01
       N       E                     dE             d eps       ncg     rms          rms(c)
DAV:   1    -0.318163752897E+03   -0.81899E-01   -0.23253E+00  1104   0.252E+00    0.829E-01
DAV:   2    -0.318184588244E+03   -0.20835E-01   -0.16008E-01  1464   0.124E+00    0.681E-01
DAV:   3    -0.318165331373E+03    0.19257E-01   -0.10929E-01  1448   0.117E+00    0.392E-01
DAV:   4    -0.318167362085E+03   -0.20307E-02   -0.23948E-02  1368   0.558E-01    0.284E-01
DAV:   5    -0.318162781426E+03    0.45807E-02   -0.16311E-02  1472   0.483E-01    0.257E-01
DAV:   6    -0.318161984146E+03    0.79728E-03   -0.70921E-03  1360   0.268E-01    0.170E-01
DAV:   7    -0.318161620603E+03    0.36354E-03   -0.32321E-03  1376   0.203E-01    0.150E-01
DAV:   8    -0.318161033349E+03    0.58725E-03   -0.11200E-03  1328   0.110E-01    0.361E-02
DAV:   9    -0.318161138343E+03   -0.10499E-03   -0.45191E-04  1328   0.505E-02    0.558E-02
DAV:  10    -0.318161134267E+03    0.40766E-05   -0.73291E-05  1208   0.202E-02
   6 F= -.32703434E+03 E0= -.32703163E+03  d E =-.625639E-01
       N       E                     dE             d eps       ncg     rms          rms(c)
DAV:   1    -0.318356910693E+03   -0.19577E+00   -0.20864E+01  1104   0.754E+00    0.252E+00
DAV:   2    -0.318398380453E+03   -0.41470E-01   -0.12785E+00  1360   0.271E+00    0.164E+00
DAV:   3    -0.318372255247E+03    0.26125E-01   -0.36104E-01  1344   0.192E+00    0.878E-01
DAV:   4    -0.318356562726E+03    0.15693E-01   -0.71264E-02  1352   0.106E+00    0.588E-01
DAV:   5    -0.318359697199E+03   -0.31345E-02   -0.89962E-02  1536   0.123E+00    0.524E-01
DAV:   6    -0.318338431388E+03    0.21266E-01   -0.59156E-02  1344   0.725E-01    0.298E-01
DAV:   7    -0.318339162127E+03   -0.73074E-03   -0.20319E-02  1464   0.333E-01    0.315E-01
DAV:   8    -0.318338668813E+03    0.49331E-03   -0.74944E-03  1248   0.173E-01    0.182E-01
DAV:   9    -0.318339676606E+03   -0.10078E-02   -0.10137E-03  1352   0.956E-02    0.180E-01
DAV:  10    -0.318340627918E+03   -0.95131E-03   -0.31699E-03  1728   0.251E-01    0.187E-01
DAV:  11    -0.318339131963E+03    0.14960E-02   -0.62980E-04  1400   0.981E-02    0.117E-01
DAV:  12    -0.318339009715E+03    0.12225E-03   -0.38972E-04  1392   0.567E-02    0.558E-02
DAV:  13    -0.318339078788E+03   -0.69073E-04   -0.27461E-04  1272   0.310E-02    0.331E-02
DAV:  14    -0.318339125265E+03   -0.46477E-04   -0.10227E-05   848   0.135E-02    0.288E-02
DAV:  15    -0.318339441639E+03   -0.31637E-03   -0.74702E-05  1056   0.136E-02    0.296E-02
DAV:  16    -0.318339458908E+03   -0.17269E-04   -0.26312E-05   816   0.115E-02    0.201E-02
DAV:  17    -0.318339568631E+03   -0.10972E-03   -0.27787E-05   848   0.858E-03    0.117E-02
DAV:  18    -0.318339674305E+03   -0.10567E-03   -0.54924E-06   760   0.511E-03    0.660E-03
DAV:  19    -0.318339795506E+03   -0.12120E-03   -0.68586E-06   824   0.565E-03    0.115E-02
DAV:  20    -0.318339856095E+03   -0.60589E-04   -0.49156E-06   744   0.353E-03    0.801E-03
DAV:  21    -0.318339878129E+03   -0.22034E-04   -0.88533E-07   624   0.213E-03    0.874E-03
DAV:  22    -0.318339923514E+03   -0.45386E-04   -0.15851E-06   720   0.256E-03    0.761E-03
DAV:  23    -0.318339943930E+03   -0.20415E-04   -0.10909E-06   704   0.237E-03    0.621E-03
DAV:  24    -0.318339948234E+03   -0.43040E-05   -0.61001E-07   624   0.150E-03
   7 F= -.32716250E+03 E0= -.32715986E+03  d E =-.190724E+00
       N       E                     dE             d eps       ncg     rms          rms(c)
DAV:   1    -0.318438983679E+03   -0.99040E-01   -0.82902E+01  1104   0.151E+01    0.540E+00
DAV:   2    -0.318574080981E+03   -0.13510E+00   -0.52369E+00  1344   0.480E+00    0.279E+00
DAV:   3    -0.318499230785E+03    0.74850E-01   -0.59149E-01  1328   0.227E+00    0.158E+00
DAV:   4    -0.318436002114E+03    0.63229E-01   -0.15853E-01  1328   0.150E+00    0.110E+00
DAV:   5    -0.318434181359E+03    0.18208E-02   -0.25670E-01  1456   0.192E+00    0.737E-01
DAV:   6    -0.318402009239E+03    0.32172E-01   -0.16191E-01  1304   0.112E+00    0.461E-01
DAV:   7    -0.318398923279E+03    0.30860E-02   -0.45235E-02  1440   0.491E-01    0.479E-01
DAV:   8    -0.318400275543E+03   -0.13523E-02   -0.12895E-02  1248   0.209E-01    0.382E-01
DAV:   9    -0.318401037967E+03   -0.76242E-03   -0.68397E-04  1536   0.101E-01    0.356E-01
DAV:  10    -0.318413913990E+03   -0.12876E-01   -0.15660E-02  1800   0.524E-01    0.120E+00
DAV:  11    -0.318422388261E+03   -0.84743E-02   -0.25779E-02  1248   0.250E-01    0.208E+00
DAV:  12    -0.318424965438E+03   -0.25772E-02   -0.18157E-03  1504   0.792E-02    0.244E+00
DAV:  13    -0.318425384149E+03   -0.41871E-03   -0.17524E-04  1272   0.307E-02    0.260E+00
DAV:  14    -0.318427282728E+03   -0.18986E-02   -0.25926E-03  1336   0.160E-01    0.332E+00
DAV:  15    -0.318433319063E+03   -0.60363E-02   -0.32814E-03  1304   0.127E-01    0.413E+00
DAV:  16    -0.318434837532E+03   -0.15185E-02   -0.63301E-04  1448   0.511E-02    0.434E+00
DAV:  17    -0.318434484109E+03    0.35342E-03   -0.12253E-04  1328   0.246E-02    0.435E+00
DAV:  18    -0.318434768799E+03   -0.28469E-03   -0.14477E-05   848   0.734E-03    0.436E+00
DAV:  19    -0.318434183244E+03    0.58556E-03   -0.22263E-05   848   0.135E-02    0.430E+00
DAV:  20    -0.318429883205E+03    0.43000E-02   -0.92903E-04  1296   0.695E-02    0.384E+00
DAV:  21    -0.318428513991E+03    0.13692E-02   -0.16998E-04  1344   0.219E-02    0.368E+00
DAV:  22    -0.318428456151E+03    0.57840E-04   -0.14050E-05   792   0.780E-03    0.368E+00
DAV:  23    -0.318428135427E+03    0.32072E-03   -0.55259E-05  1088   0.243E-02    0.357E+00
DAV:  24    -0.318427629470E+03    0.50596E-03   -0.82454E-04  1344   0.665E-02    0.322E+00
DAV:  25    -0.318425217080E+03    0.24124E-02   -0.49144E-04  1296   0.447E-02    0.296E+00
DAV:  26    -0.318420404374E+03    0.48127E-02   -0.88382E-04  1256   0.591E-02    0.260E+00
DAV:  27    -0.318415140610E+03    0.52638E-02   -0.14130E-03  1304   0.952E-02    0.221E+00
DAV:  28    -0.318409995806E+03    0.51448E-02   -0.10105E-03  1616   0.128E-01    0.187E+00
DAV:  29    -0.318405937923E+03    0.40579E-02   -0.20346E-03  1376   0.143E-01    0.164E+00
DAV:  30    -0.318401675851E+03    0.42621E-02   -0.24674E-03  1760   0.207E-01    0.137E+00
DAV:  31    -0.318399051677E+03    0.26242E-02   -0.19293E-03  1440   0.170E-01    0.121E+00
DAV:  32    -0.318398084783E+03    0.96689E-03   -0.33678E-03  1368   0.164E-01    0.101E+00
DAV:  33    -0.318397753760E+03    0.33102E-03   -0.24536E-03  1240   0.919E-02    0.685E-01
DAV:  34    -0.318397625745E+03    0.12802E-03   -0.20791E-04  1432   0.252E-02    0.542E-01
DAV:  35    -0.318397600733E+03    0.25012E-04   -0.27520E-05   888   0.151E-02    0.524E-01
DAV:  36    -0.318397839730E+03   -0.23900E-03   -0.10704E-04  1224   0.245E-02    0.451E-01
DAV:  37    -0.318398079499E+03   -0.23977E-03   -0.35701E-04  1280   0.362E-02    0.303E-01
DAV:  38    -0.318398051152E+03    0.28347E-04   -0.60592E-05  1072   0.151E-02    0.266E-01
DAV:  39    -0.318398056934E+03   -0.57825E-05   -0.16733E-05   776   0.746E-03
   8 F= -.32710009E+03 E0= -.32709754E+03  d E =-.128317E+00
       N       E                     dE             d eps       ncg     rms          rms(c)
DAV:   1    -0.318435933768E+03   -0.37883E-01   -0.34557E+01  1104   0.963E+00    0.329E+00
DAV:   2    -0.318479922093E+03   -0.43988E-01   -0.20426E+00  1352   0.353E+00    0.216E+00
DAV:   3    -0.318435874056E+03    0.44048E-01   -0.56738E-01  1312   0.217E+00    0.117E+00
DAV:   4    -0.318428007826E+03    0.78662E-02   -0.92715E-02  1312   0.109E+00    0.777E-01
DAV:   5    -0.318423408209E+03    0.45996E-02   -0.10974E-01  1520   0.133E+00    0.751E-01
DAV:   6    -0.318404241544E+03    0.19167E-01   -0.72106E-02  1496   0.941E-01    0.315E-01
DAV:   7    -0.318405788574E+03   -0.15470E-02   -0.35535E-02  1256   0.527E-01    0.380E-01
DAV:   8    -0.318404163929E+03    0.16246E-02   -0.88662E-03  1264   0.266E-01    0.173E-01
DAV:   9    -0.318405714319E+03   -0.15504E-02   -0.21441E-03  1496   0.148E-01    0.266E-01
DAV:  10    -0.318406428323E+03   -0.71400E-03   -0.10998E-03  1376   0.630E-02    0.220E-01
DAV:  11    -0.318406698844E+03   -0.27052E-03   -0.84667E-04  1240   0.537E-02    0.192E-01
DAV:  12    -0.318407053621E+03   -0.35478E-03   -0.74128E-04  1424   0.103E-01    0.151E-01
DAV:  13    -0.318407208307E+03   -0.15469E-03   -0.45345E-04  1232   0.466E-02    0.143E-01
DAV:  14    -0.318407342228E+03   -0.13392E-03   -0.11702E-04  1296   0.307E-02    0.103E-01
DAV:  15    -0.318407452423E+03   -0.11020E-03   -0.57811E-05  1040   0.139E-02    0.538E-02
DAV:  16    -0.318407753354E+03   -0.30093E-03   -0.12633E-04  1256   0.191E-02    0.425E-02
DAV:  17    -0.318407765375E+03   -0.12021E-04   -0.11152E-05   840   0.105E-02    0.241E-02
DAV:  18    -0.318407865852E+03   -0.10048E-03   -0.10715E-05   848   0.793E-03    0.165E-02
DAV:  19    -0.318408034557E+03   -0.16871E-03   -0.23014E-05   904   0.722E-03    0.139E-02
DAV:  20    -0.318408128653E+03   -0.94096E-04   -0.14543E-05   824   0.555E-03    0.717E-03
DAV:  21    -0.318408205628E+03   -0.76974E-04   -0.80231E-06   832   0.403E-03    0.397E-03
DAV:  22    -0.318408241979E+03   -0.36352E-04   -0.31696E-06   760   0.264E-03    0.356E-03
DAV:  23    -0.318408263031E+03   -0.21052E-04   -0.18938E-06   736   0.179E-03    0.396E-03
DAV:  24    -0.318408265423E+03   -0.23916E-05   -0.47666E-07   624   0.160E-03
   9 F= -.32719153E+03 E0= -.32718899E+03  d E =-.219761E+00
       N       E                     dE             d eps       ncg     rms          rms(c)
DAV:   1    -0.318569127482E+03   -0.16086E+00   -0.67463E+00  1104   0.430E+00    0.174E+00
DAV:   2    -0.318539757307E+03    0.29370E-01   -0.38669E-01  1344   0.145E+00    0.109E+00
DAV:   3    -0.318538151976E+03    0.16053E-02   -0.14740E-01  1440   0.155E+00    0.648E-01
DAV:   4    -0.318504944512E+03    0.33207E-01   -0.60870E-02  1456   0.108E+00    0.373E-01
DAV:   5    -0.318516056933E+03   -0.11112E-01   -0.57565E-02  1344   0.673E-01    0.500E-01
DAV:   6    -0.318502039569E+03    0.14017E-01   -0.41518E-02  1376   0.784E-01    0.238E-01
DAV:   7    -0.318500892471E+03    0.11471E-02   -0.50043E-03  1272   0.253E-01    0.112E-01
DAV:   8    -0.318501009355E+03   -0.11688E-03   -0.28032E-03  1352   0.975E-02    0.136E-01
DAV:   9    -0.318501058118E+03   -0.48762E-04   -0.26289E-04  1344   0.318E-02    0.103E-01
DAV:  10    -0.318501121709E+03   -0.63591E-04   -0.56724E-05  1144   0.190E-02    0.515E-02
DAV:  11    -0.318501257437E+03   -0.13573E-03   -0.97468E-05  1168   0.215E-02    0.205E-02
DAV:  12    -0.318501347596E+03   -0.90159E-04   -0.29164E-05   936   0.108E-02    0.203E-02
DAV:  13    -0.318501409278E+03   -0.61682E-04   -0.40697E-06   696   0.594E-03    0.157E-02
DAV:  14    -0.318501647255E+03   -0.23798E-03   -0.28704E-05   920   0.708E-03    0.774E-03
DAV:  15    -0.318501729947E+03   -0.82691E-04   -0.49886E-06   840   0.693E-03    0.875E-03
DAV:  16    -0.318501836031E+03   -0.10608E-03   -0.10553E-05   792   0.453E-03    0.976E-03
DAV:  17    -0.318501879959E+03   -0.43928E-04   -0.22937E-06   784   0.249E-03    0.964E-03
DAV:  18    -0.318501906620E+03   -0.26661E-04   -0.11482E-06   656   0.435E-03    0.539E-03
DAV:  19    -0.318501922927E+03   -0.16307E-04   -0.11772E-06   688   0.355E-03    0.312E-03
DAV:  20    -0.318501924430E+03   -0.15034E-05   -0.73295E-07   624   0.159E-03
  10 F= -.32725737E+03 E0= -.32725526E+03  d E =-.658410E-01
       N       E                     dE             d eps       ncg     rms          rms(c)
DAV:   1    -0.318602726081E+03   -0.10080E+00   -0.55450E+00  1104   0.390E+00    0.158E+00
DAV:   2    -0.318575684230E+03    0.27042E-01   -0.32923E-01  1328   0.117E+00    0.822E-01
DAV:   3    -0.318560194880E+03    0.15489E-01   -0.33846E-02  1320   0.366E-01    0.495E-01
DAV:   4    -0.318551320860E+03    0.88740E-02   -0.13051E-02  1288   0.196E-01    0.256E-01
DAV:   5    -0.318548878131E+03    0.24427E-02   -0.41961E-03  1312   0.111E-01    0.114E-01
DAV:   6    -0.318548521245E+03    0.35689E-03   -0.59967E-04  1408   0.480E-02    0.700E-02
DAV:   7    -0.318548459900E+03    0.61345E-04   -0.24203E-04  1288   0.276E-02    0.312E-02
DAV:   8    -0.318548502979E+03   -0.43079E-04   -0.88936E-05  1280   0.162E-02    0.187E-02
DAV:   9    -0.318548605981E+03   -0.10300E-03   -0.21223E-05   856   0.851E-03    0.130E-02
DAV:  10    -0.318548806659E+03   -0.20068E-03   -0.31063E-05   944   0.776E-03    0.582E-03
DAV:  11    -0.318548937867E+03   -0.13121E-03   -0.75000E-06   816   0.457E-03    0.517E-03
DAV:  12    -0.318549080523E+03   -0.14266E-03   -0.88463E-06   800   0.381E-03    0.346E-03
DAV:  13    -0.318549206372E+03   -0.12585E-03   -0.77978E-06   816   0.315E-03    0.213E-03
DAV:  14    -0.318549272192E+03   -0.65821E-04   -0.24494E-06   744   0.196E-03    0.193E-03
DAV:  15    -0.318549321816E+03   -0.49623E-04   -0.16593E-06   736   0.168E-03    0.639E-04
DAV:  16    -0.318549352666E+03   -0.30850E-04   -0.11451E-06   728   0.125E-03    0.627E-04
DAV:  17    -0.318549356943E+03   -0.42763E-05   -0.30072E-07   624   0.763E-04
  11 F= -.32727695E+03 E0= -.32727521E+03  d E =-.854201E-01
       N       E                     dE             d eps       ncg     rms          rms(c)
DAV:   1    -0.318588751560E+03   -0.39399E-01   -0.10743E+00  1104   0.175E+00    0.737E-01
DAV:   2    -0.318589015376E+03   -0.26382E-03   -0.80390E-02  1392   0.534E-01    0.357E-01
DAV:   3    -0.318586989668E+03    0.20257E-02   -0.41763E-03  1344   0.182E-01    0.235E-01
DAV:   4    -0.318586265476E+03    0.72419E-03   -0.34441E-03  1424   0.192E-01    0.153E-01
DAV:   5    -0.318586496709E+03   -0.23123E-03   -0.62107E-03  1536   0.336E-01    0.848E-02
DAV:   6    -0.318585755894E+03    0.74081E-03   -0.20294E-03  1408   0.155E-01    0.653E-02
DAV:   7    -0.318585615729E+03    0.14016E-03   -0.57730E-04  1464   0.793E-02    0.703E-02
DAV:   8    -0.318585648751E+03   -0.33021E-04   -0.47885E-04  1280   0.411E-02    0.595E-02
DAV:   9    -0.318585657842E+03   -0.90916E-05   -0.14670E-05   832   0.129E-02
  12 F= -.32729694E+03 E0= -.32729516E+03  d E =-.199890E-01
       N       E                     dE             d eps       ncg     rms          rms(c)
DAV:   1    -0.318622942150E+03   -0.37293E-01   -0.20465E+00  1104   0.241E+00    0.102E+00
DAV:   2    -0.318625647321E+03   -0.27052E-02   -0.14421E-01  1368   0.858E-01    0.606E-01
DAV:   3    -0.318622978374E+03    0.26689E-02   -0.47798E-02  1424   0.708E-01    0.479E-01
DAV:   4    -0.318625323854E+03   -0.23455E-02   -0.27638E-02  1440   0.787E-01    0.299E-01
DAV:   5    -0.318617272786E+03    0.80511E-02   -0.11081E-02  1432   0.482E-01    0.214E-01
DAV:   6    -0.318629196257E+03   -0.11923E-01   -0.17190E-02  1736   0.542E-01    0.387E-01
DAV:   7    -0.318616425923E+03    0.12770E-01   -0.17342E-02  1520   0.511E-01    0.133E-01
DAV:   8    -0.318616698002E+03   -0.27208E-03   -0.44030E-03  1328   0.122E-01    0.124E-01
DAV:   9    -0.318616730986E+03   -0.32983E-04   -0.25794E-04  1528   0.283E-02    0.136E-01
DAV:  10    -0.318616735232E+03   -0.42463E-05   -0.62949E-06   816   0.559E-03
  13 F= -.32730507E+03 E0= -.32730310E+03  d E =-.281126E-01
       N       E                     dE             d eps       ncg     rms          rms(c)
DAV:   1    -0.318629228184E+03   -0.12497E-01   -0.94918E-01  1128   0.165E+00    0.537E-01
DAV:   2    -0.318635109636E+03   -0.58815E-02   -0.75239E-02  1408   0.509E-01    0.242E-01
DAV:   3    -0.318636460458E+03   -0.13508E-02   -0.65547E-03  1488   0.332E-01    0.204E-01
DAV:   4    -0.318634399719E+03    0.20607E-02   -0.40740E-03  1488   0.275E-01    0.139E-01
DAV:   5    -0.318634373890E+03    0.25829E-04   -0.25620E-03  1256   0.111E-01    0.101E-01
DAV:   6    -0.318634417487E+03   -0.43598E-04   -0.68801E-04  1280   0.551E-02    0.562E-02
DAV:   7    -0.318634555100E+03   -0.13761E-03   -0.19060E-04  1392   0.588E-02    0.576E-02
DAV:   8    -0.318634568835E+03   -0.13735E-04   -0.29365E-04  1288   0.819E-02    0.427E-02
DAV:   9    -0.318634474015E+03    0.94820E-04   -0.73217E-05  1080   0.379E-02    0.198E-02
DAV:  10    -0.318634504677E+03   -0.30662E-04   -0.42392E-05  1056   0.143E-02    0.203E-02
DAV:  11    -0.318634524764E+03   -0.20087E-04   -0.68552E-06   664   0.605E-03    0.168E-02
DAV:  12    -0.318634556120E+03   -0.31356E-04   -0.56934E-06   792   0.755E-03    0.860E-03
DAV:  13    -0.318634560858E+03   -0.47380E-05   -0.44483E-06   792   0.721E-03
  14 F= -.32731889E+03 E0= -.32731667E+03  d E =-.138273E-01
       N       E                     dE             d eps       ncg     rms          rms(c)
DAV:   1    -0.318640931323E+03   -0.63752E-02   -0.69914E-01  1128   0.142E+00    0.472E-01
DAV:   2    -0.318645002533E+03   -0.40712E-02   -0.53673E-02  1400   0.434E-01    0.197E-01
DAV:   3    -0.318646379019E+03   -0.13765E-02   -0.36581E-03  1472   0.217E-01    0.255E-01
DAV:   4    -0.318645105520E+03    0.12735E-02   -0.36535E-03  1488   0.273E-01    0.137E-01
DAV:   5    -0.318644398603E+03    0.70692E-03   -0.12911E-03  1328   0.104E-01    0.950E-02
DAV:   6    -0.318644770334E+03   -0.37173E-03   -0.75631E-04  1392   0.123E-01    0.115E-01
DAV:   7    -0.318644375596E+03    0.39474E-03   -0.89273E-04  1304   0.817E-02    0.759E-02
DAV:   8    -0.318644394993E+03   -0.19397E-04   -0.21468E-04  1328   0.270E-02    0.573E-02
DAV:   9    -0.318644395898E+03   -0.90502E-06   -0.12841E-05   784   0.768E-03
  15 F= -.32732501E+03 E0= -.32732263E+03  d E =-.199457E-01
       N       E                     dE             d eps       ncg     rms          rms(c)
DAV:   1    -0.318634989751E+03    0.94052E-02   -0.27968E+00  1128   0.284E+00    0.963E-01
DAV:   2    -0.318651685176E+03   -0.16695E-01   -0.21215E-01  1408   0.884E-01    0.447E-01
DAV:   3    -0.318653286243E+03   -0.16011E-02   -0.19090E-02  1424   0.466E-01    0.386E-01
DAV:   4    -0.318653442542E+03   -0.15630E-03   -0.18928E-02  1464   0.634E-01    0.257E-01
DAV:   5    -0.318649308296E+03    0.41342E-02   -0.56102E-03  1400   0.286E-01    0.195E-01
DAV:   6    -0.318652921432E+03   -0.36131E-02   -0.79641E-03  1864   0.390E-01    0.305E-01
DAV:   7    -0.318648608865E+03    0.43126E-02   -0.76010E-03  1448   0.253E-01    0.159E-01
DAV:   8    -0.318648569209E+03    0.39655E-04   -0.22650E-03  1352   0.925E-02    0.139E-01
DAV:   9    -0.318648619091E+03   -0.49881E-04   -0.30068E-04  1352   0.323E-02    0.114E-01
DAV:  10    -0.318648655071E+03   -0.35981E-04   -0.25060E-05   984   0.156E-02    0.113E-01
DAV:  11    -0.318648854343E+03   -0.19927E-03   -0.21460E-04  1288   0.292E-02    0.278E-01
DAV:  12    -0.318649203184E+03   -0.34884E-03   -0.33965E-04  1320   0.470E-02    0.480E-01
DAV:  13    -0.318648874453E+03    0.32873E-03   -0.14434E-04  1272   0.229E-02    0.342E-01
DAV:  14    -0.318648820044E+03    0.54408E-04   -0.40687E-05  1088   0.143E-02    0.299E-01
DAV:  15    -0.318648557930E+03    0.26211E-03   -0.72725E-04  1248   0.496E-02    0.267E-02
DAV:  16    -0.318648579897E+03   -0.21967E-04   -0.13185E-04  1280   0.221E-02    0.236E-02
DAV:  17    -0.318648588896E+03   -0.89994E-05   -0.37889E-05  1040   0.101E-02
  16 F= -.32732100E+03 E0= -.32731869E+03  d E =-.159304E-01
       N       E                     dE             d eps       ncg     rms          rms(c)
DAV:   1    -0.318641476117E+03    0.71038E-02   -0.13275E+00  1128   0.196E+00    0.661E-01
DAV:   2    -0.318649017132E+03   -0.75410E-02   -0.10273E-01  1408   0.594E-01    0.266E-01
DAV:   3    -0.318649494718E+03   -0.47759E-03   -0.52729E-03  1472   0.254E-01    0.204E-01
DAV:   4    -0.318649233922E+03    0.26080E-03   -0.58231E-03  1488   0.325E-01    0.243E-01
DAV:   5    -0.318648673491E+03    0.56043E-03   -0.40588E-03  1600   0.270E-01    0.123E-01
DAV:   6    -0.318647827693E+03    0.84580E-03   -0.23233E-03  1336   0.158E-01    0.738E-02
DAV:   7    -0.318647909137E+03   -0.81445E-04   -0.10368E-03  1312   0.585E-02    0.598E-02
DAV:   8    -0.318648006838E+03   -0.97701E-04   -0.16337E-04  1408   0.435E-02    0.636E-02
DAV:   9    -0.318647911660E+03    0.95178E-04   -0.17924E-04  1480   0.549E-02    0.257E-02
DAV:  10    -0.318647905486E+03    0.61742E-05   -0.38102E-05   880   0.199E-02
  17 F= -.32732608E+03 E0= -.32732381E+03  d E =-.210159E-01
       N       E                     dE             d eps       ncg     rms          rms(c)
DAV:   1    -0.318678062640E+03   -0.30151E-01   -0.13993E+00  1104   0.204E+00    0.768E-01
DAV:   2    -0.318682075370E+03   -0.40127E-02   -0.10292E-01  1400   0.671E-01    0.498E-01
DAV:   3    -0.318686933070E+03   -0.48577E-02   -0.51681E-02  1536   0.901E-01    0.316E-01
DAV:   4    -0.318677937260E+03    0.89958E-02   -0.17649E-02  1552   0.518E-01    0.169E-01
DAV:   5    -0.318679074576E+03   -0.11373E-02   -0.93315E-03  1560   0.377E-01    0.269E-01
DAV:   6    -0.318676864098E+03    0.22105E-02   -0.81185E-03  1464   0.322E-01    0.119E-01
DAV:   7    -0.318676783524E+03    0.80574E-04   -0.18063E-03  1240   0.961E-02    0.738E-02
DAV:   8    -0.318676709611E+03    0.73913E-04   -0.43797E-04  1632   0.507E-02    0.645E-02
DAV:   9    -0.318676762555E+03   -0.52944E-04   -0.20707E-04  1320   0.391E-02    0.575E-02
DAV:  10    -0.318676751646E+03    0.10909E-04   -0.16619E-04  1384   0.439E-02    0.279E-02
DAV:  11    -0.318676751276E+03    0.37032E-06   -0.94131E-05  1168   0.224E-02
  18 F= -.32734669E+03 E0= -.32734452E+03  d E =-.206115E-01
       N       E                     dE             d eps       ncg     rms          rms(c)
DAV:   1    -0.318710265276E+03   -0.33514E-01   -0.58364E+00  1104   0.416E+00    0.156E+00
DAV:   2    -0.318720905970E+03   -0.10641E-01   -0.44034E-01  1384   0.125E+00    0.713E-01
DAV:   3    -0.318711062112E+03    0.98439E-02   -0.28234E-02  1376   0.367E-01    0.462E-01
DAV:   4    -0.318707503994E+03    0.35581E-02   -0.15035E-02  1312   0.208E-01    0.288E-01
DAV:   5    -0.318705944814E+03    0.15592E-02   -0.10343E-02  1328   0.170E-01    0.141E-01
DAV:   6    -0.318705603548E+03    0.34127E-03   -0.40919E-03  1272   0.106E-01    0.841E-02
DAV:   7    -0.318705609817E+03   -0.62685E-05   -0.61012E-04  1272   0.435E-02    0.623E-02
DAV:   8    -0.318705707393E+03   -0.97576E-04   -0.27724E-04  1296   0.277E-02    0.317E-02
DAV:   9    -0.318705745560E+03   -0.38167E-04   -0.34828E-04  1344   0.295E-02    0.161E-02
DAV:  10    -0.318705789428E+03   -0.43868E-04   -0.32084E-05   864   0.104E-02    0.917E-03
DAV:  11    -0.318705838107E+03   -0.48679E-04   -0.52490E-06   720   0.470E-03    0.736E-03
DAV:  12    -0.318705945618E+03   -0.10751E-03   -0.66902E-06   776   0.388E-03    0.293E-03
DAV:  13    -0.318706011095E+03   -0.65476E-04   -0.36975E-06   728   0.278E-03    0.251E-03
DAV:  14    -0.318706085101E+03   -0.74006E-04   -0.37949E-06   744   0.239E-03    0.218E-03
DAV:  15    -0.318706138458E+03   -0.53357E-04   -0.29086E-06   744   0.199E-03    0.116E-03
DAV:  16    -0.318706167069E+03   -0.28611E-04   -0.15411E-06   696   0.145E-03    0.101E-03
DAV:  17    -0.318706173240E+03   -0.61708E-05   -0.40572E-07   624   0.895E-04
  19 F= -.32735648E+03 E0= -.32735476E+03  d E =-.303996E-01
       N       E                     dE             d eps       ncg     rms          rms(c)
DAV:   1    -0.318702231892E+03    0.39352E-02   -0.48973E-01  1104   0.120E+00    0.461E-01
DAV:   2    -0.318703067153E+03   -0.83526E-03   -0.37042E-02  1384   0.362E-01    0.201E-01
DAV:   3    -0.318702202322E+03    0.86483E-03   -0.20872E-03  1432   0.988E-02    0.134E-01
DAV:   4    -0.318701897336E+03    0.30499E-03   -0.98132E-04  1312   0.544E-02    0.795E-02
DAV:   5    -0.318701770092E+03    0.12724E-03   -0.61588E-04  1328   0.408E-02    0.378E-02
DAV:   6    -0.318701757130E+03    0.12963E-04   -0.28565E-04  1296   0.285E-02    0.260E-02
DAV:   7    -0.318701774785E+03   -0.17655E-04   -0.63809E-05   960   0.138E-02    0.165E-02
DAV:   8    -0.318701820153E+03   -0.45368E-04   -0.12441E-05   752   0.674E-03    0.507E-03
DAV:   9    -0.318701837243E+03   -0.17090E-04   -0.81119E-06   664   0.515E-03    0.330E-03
DAV:  10    -0.318701851158E+03   -0.13915E-04   -0.25584E-06   672   0.296E-03    0.263E-03
DAV:  11    -0.318701874438E+03   -0.23280E-04   -0.18269E-06   720   0.199E-03    0.118E-03
DAV:  12    -0.318701889114E+03   -0.14676E-04   -0.10634E-06   656   0.141E-03    0.717E-04
DAV:  13    -0.318701903149E+03   -0.14035E-04   -0.12044E-06   712   0.120E-03    0.536E-04
DAV:  14    -0.318701915225E+03   -0.12076E-04   -0.12843E-06   712   0.104E-03    0.391E-04
DAV:  15    -0.318701919292E+03   -0.40668E-05   -0.32457E-07   624   0.674E-04
  20 F= -.32735832E+03 E0= -.32735659E+03  d E =-.322389E-01
       N       E                     dE             d eps       ncg     rms          rms(c)
DAV:   1    -0.318721062899E+03   -0.19148E-01   -0.17157E+00  1104   0.221E+00    0.774E-01
DAV:   2    -0.318729133013E+03   -0.80701E-02   -0.13098E-01  1392   0.666E-01    0.346E-01
DAV:   3    -0.318727283082E+03    0.18499E-02   -0.57119E-03  1408   0.197E-01    0.234E-01
DAV:   4    -0.318726791908E+03    0.49117E-03   -0.25824E-03  1296   0.932E-02    0.128E-01
DAV:   5    -0.318726590926E+03    0.20098E-03   -0.64371E-04  1384   0.440E-02    0.554E-02
DAV:   6    -0.318726564938E+03    0.25989E-04   -0.95740E-05  1312   0.194E-02    0.350E-02
DAV:   7    -0.318726560266E+03    0.46717E-05   -0.19590E-05   832   0.881E-03
  21 F= -.32737648E+03 E0= -.32737475E+03  d E =-.181572E-01
       N       E                     dE             d eps       ncg     rms          rms(c)
DAV:   1    -0.318730393329E+03   -0.38284E-02   -0.58194E+00  1104   0.407E+00    0.144E+00
DAV:   2    -0.318758100518E+03   -0.27707E-01   -0.44627E-01  1408   0.123E+00    0.632E-01
DAV:   3    -0.318751640139E+03    0.64604E-02   -0.19616E-02  1416   0.362E-01    0.433E-01
DAV:   4    -0.318750024977E+03    0.16152E-02   -0.88715E-03  1296   0.173E-01    0.233E-01
DAV:   5    -0.318749352099E+03    0.67288E-03   -0.29861E-03  1384   0.929E-02    0.105E-01
DAV:   6    -0.318749329906E+03    0.22193E-04   -0.18617E-03  1328   0.685E-02    0.724E-02
DAV:   7    -0.318749283782E+03    0.46124E-04   -0.10242E-03  1328   0.484E-02    0.474E-02
DAV:   8    -0.318749301767E+03   -0.17984E-04   -0.28073E-04  1280   0.269E-02    0.223E-02
DAV:   9    -0.318749324186E+03   -0.22419E-04   -0.62821E-05   968   0.141E-02    0.825E-03
DAV:  10    -0.318749341753E+03   -0.17567E-04   -0.91473E-06   696   0.589E-03    0.690E-03
DAV:  11    -0.318749366651E+03   -0.24898E-04   -0.35013E-06   688   0.393E-03    0.353E-03
DAV:  12    -0.318749395035E+03   -0.28384E-04   -0.27402E-06   736   0.292E-03    0.181E-03
DAV:  13    -0.318749412522E+03   -0.17487E-04   -0.12366E-06   656   0.192E-03    0.151E-03
DAV:  14    -0.318749428806E+03   -0.16285E-04   -0.94635E-07   648   0.146E-03    0.101E-03
DAV:  15    -0.318749449734E+03   -0.20928E-04   -0.14956E-06   704   0.135E-03    0.579E-04
DAV:  16    -0.318749455392E+03   -0.56574E-05   -0.45531E-07   624   0.930E-04
  22 F= -.32738609E+03 E0= -.32738436E+03  d E =-.277685E-01
       N       E                     dE             d eps       ncg     rms          rms(c)
DAV:   1    -0.318748222241E+03    0.12275E-02   -0.15049E+00  1112   0.210E+00    0.610E-01
DAV:   2    -0.318758736002E+03   -0.10514E-01   -0.12292E-01  1432   0.623E-01    0.283E-01
DAV:   3    -0.318757816335E+03    0.91967E-03   -0.46941E-03  1416   0.165E-01    0.205E-01
DAV:   4    -0.318757723429E+03    0.92907E-04   -0.19345E-03  1320   0.772E-02    0.139E-01
DAV:   5    -0.318757669593E+03    0.53836E-04   -0.15314E-03  1520   0.602E-02    0.730E-02
DAV:   6    -0.318757648582E+03    0.21010E-04   -0.15193E-03  1512   0.561E-02    0.354E-02
DAV:   7    -0.318757625554E+03    0.23028E-04   -0.51133E-04  1336   0.350E-02    0.252E-02
DAV:   8    -0.318757644180E+03   -0.18627E-04   -0.52008E-05  1264   0.129E-02    0.142E-02
DAV:   9    -0.318757647919E+03   -0.37381E-05   -0.29620E-05   664   0.853E-03
  23 F= -.32739840E+03 E0= -.32739667E+03  d E =-.123105E-01
       N       E                     dE             d eps       ncg     rms          rms(c)
DAV:   1    -0.318734568462E+03    0.23076E-01   -0.39405E+00  1112   0.339E+00    0.996E-01
DAV:   2    -0.318762030678E+03   -0.27462E-01   -0.32108E-01  1424   0.101E+00    0.454E-01
DAV:   3    -0.318759635345E+03    0.23953E-02   -0.12370E-02  1416   0.268E-01    0.328E-01
DAV:   4    -0.318759426295E+03    0.20905E-03   -0.63243E-03  1336   0.133E-01    0.228E-01
DAV:   5    -0.318759316976E+03    0.10932E-03   -0.65411E-03  1544   0.118E-01    0.136E-01
DAV:   6    -0.318759207112E+03    0.10986E-03   -0.62428E-03  1520   0.104E-01    0.647E-02
DAV:   7    -0.318759126842E+03    0.80270E-04   -0.17915E-03  1400   0.641E-02    0.465E-02
DAV:   8    -0.318759191732E+03   -0.64890E-04   -0.17797E-04  1368   0.239E-02    0.276E-02
DAV:   9    -0.318759198853E+03   -0.71212E-05   -0.10183E-04   800   0.146E-02    0.150E-02
DAV:  10    -0.318759239167E+03   -0.40314E-04   -0.23448E-05   880   0.786E-03    0.747E-03
DAV:  11    -0.318759258852E+03   -0.19685E-04   -0.28153E-06   712   0.396E-03    0.377E-03
DAV:  12    -0.318759284281E+03   -0.25429E-04   -0.18652E-06   752   0.225E-03    0.193E-03
DAV:  13    -0.318759305025E+03   -0.20744E-04   -0.12884E-06   696   0.160E-03    0.134E-03
DAV:  14    -0.318759324967E+03   -0.19942E-04   -0.10571E-06   720   0.125E-03    0.848E-04
DAV:  15    -0.318759345281E+03   -0.20314E-04   -0.16303E-06   752   0.131E-03    0.587E-04
DAV:  16    -0.318759355670E+03   -0.10389E-04   -0.76541E-07   688   0.900E-04    0.505E-04
DAV:  17    -0.318759364881E+03   -0.92110E-05   -0.89448E-07   728   0.833E-04
  24 F= -.32740621E+03 E0= -.32740448E+03  d E =-.201203E-01
       N       E                     dE             d eps       ncg     rms          rms(c)
DAV:   1    -0.318770137672E+03   -0.10782E-01   -0.19729E+00  1128   0.242E+00    0.718E-01
DAV:   2    -0.318784360614E+03   -0.14223E-01   -0.16574E-01  1440   0.718E-01    0.309E-01
DAV:   3    -0.318783469595E+03    0.89102E-03   -0.62306E-03  1424   0.181E-01    0.244E-01
DAV:   4    -0.318783407144E+03    0.62451E-04   -0.27592E-03  1352   0.852E-02    0.172E-01
DAV:   5    -0.318783432010E+03   -0.24865E-04   -0.39334E-03  1528   0.860E-02    0.119E-01
DAV:   6    -0.318783351887E+03    0.80123E-04   -0.53392E-03  1520   0.889E-02    0.612E-02
DAV:   7    -0.318783247482E+03    0.10440E-03   -0.11843E-03  1392   0.509E-02    0.337E-02
DAV:   8    -0.318783258716E+03   -0.11234E-04   -0.13939E-04  1376   0.200E-02    0.277E-02
DAV:   9    -0.318783254242E+03    0.44739E-05   -0.22556E-05   696   0.797E-03
  25 F= -.32742726E+03 E0= -.32742554E+03  d E =-.210541E-01
       N       E                     dE             d eps       ncg     rms          rms(c)
DAV:   1    -0.318726334853E+03    0.56924E-01   -0.13106E+01  1128   0.624E+00    0.184E+00
DAV:   2    -0.318821601067E+03   -0.95266E-01   -0.11069E+00  1432   0.185E+00    0.809E-01
DAV:   3    -0.318816073148E+03    0.55279E-02   -0.42844E-02  1408   0.476E-01    0.647E-01
DAV:   4    -0.318816898054E+03   -0.82491E-03   -0.36643E-02  1424   0.250E-01    0.592E-01
DAV:   5    -0.318817396438E+03   -0.49838E-03   -0.12208E-01  1504   0.315E-01    0.400E-01
DAV:   6    -0.318815920734E+03    0.14757E-02   -0.50851E-03  1320   0.140E-01    0.206E-01
DAV:   7    -0.318814450304E+03    0.14704E-02   -0.44637E-03  1480   0.136E-01    0.895E-02
DAV:   8    -0.318814363471E+03    0.86833E-04   -0.20853E-03  1304   0.723E-02    0.816E-02
DAV:   9    -0.318814406703E+03   -0.43232E-04   -0.39714E-04  1288   0.311E-02    0.841E-02
DAV:  10    -0.318814427078E+03   -0.20375E-04   -0.45979E-05   912   0.116E-02    0.791E-02
DAV:  11    -0.318814393056E+03    0.34022E-04   -0.87558E-04  1176   0.340E-02    0.527E-02
DAV:  12    -0.318814384558E+03    0.84983E-05   -0.18236E-04  1056   0.199E-02    0.575E-02
DAV:  13    -0.318814390363E+03   -0.58057E-05   -0.21194E-05   760   0.973E-03
  26 F= -.32745006E+03 E0= -.32744834E+03  d E =-.438490E-01
       N       E                     dE             d eps       ncg     rms          rms(c)
DAV:   1    -0.318810866568E+03    0.35180E-02   -0.28832E+00  1112   0.289E+00    0.841E-01
DAV:   2    -0.318833064598E+03   -0.22198E-01   -0.25948E-01  1432   0.869E-01    0.567E-01
DAV:   3    -0.318839389864E+03   -0.63253E-02   -0.24588E-01  1536   0.547E-01    0.426E-01
DAV:   4    -0.318831404556E+03    0.79853E-02   -0.16727E-02  1528   0.380E-01    0.246E-01
DAV:   5    -0.318830747988E+03    0.65657E-03   -0.16645E-02  1568   0.266E-01    0.233E-01
DAV:   6    -0.318830268642E+03    0.47935E-03   -0.94143E-03  1432   0.162E-01    0.131E-01
DAV:   7    -0.318830362732E+03   -0.94091E-04   -0.83146E-04  1320   0.580E-02    0.957E-02
DAV:   8    -0.318830377999E+03   -0.15267E-04   -0.14532E-03  1256   0.548E-02    0.767E-02
DAV:   9    -0.318830402507E+03   -0.24508E-04   -0.20548E-03  1472   0.608E-02    0.525E-02
DAV:  10    -0.318830320832E+03    0.81675E-04   -0.40706E-04  1328   0.323E-02    0.185E-02
DAV:  11    -0.318830324139E+03   -0.33067E-05   -0.32959E-05  1032   0.107E-02
  27 F= -.32747028E+03 E0= -.32746851E+03  d E =-.202231E-01
       N       E                     dE             d eps       ncg     rms          rms(c)
DAV:   1    -0.318701356163E+03    0.12896E+00   -0.20343E+01  1112   0.768E+00    0.233E+00
DAV:   2    -0.318847382907E+03   -0.14603E+00   -0.16926E+00  1440   0.230E+00    0.984E-01
DAV:   3    -0.318841553890E+03    0.58290E-02   -0.76472E-02  1392   0.658E-01    0.722E-01
DAV:   4    -0.318841510216E+03    0.43674E-04   -0.32114E-02  1344   0.277E-01    0.537E-01
DAV:   5    -0.318842094990E+03   -0.58477E-03   -0.36275E-02  1448   0.255E-01    0.541E-01
DAV:   6    -0.318842545025E+03   -0.45004E-03   -0.14978E-01  1520   0.351E-01    0.248E-01
DAV:   7    -0.318841860741E+03    0.68428E-03   -0.59663E-03  1248   0.144E-01    0.195E-01
DAV:   8    -0.318841548368E+03    0.31237E-03   -0.95556E-04  1528   0.573E-02    0.170E-01
DAV:   9    -0.318841204620E+03    0.34375E-03   -0.11656E-04  1232   0.268E-02    0.157E-01
DAV:  10    -0.318839887063E+03    0.13176E-02   -0.39123E-03  1704   0.135E-01    0.617E-02
DAV:  11    -0.318839916893E+03   -0.29830E-04   -0.12625E-03  1304   0.527E-02    0.575E-02
DAV:  12    -0.318839978405E+03   -0.61512E-04   -0.23360E-04  1376   0.238E-02    0.671E-02
DAV:  13    -0.318839964351E+03    0.14054E-04   -0.16686E-05   808   0.671E-03    0.596E-02
DAV:  14    -0.318839963770E+03    0.58076E-06   -0.13978E-06   720   0.264E-03
  28 F= -.32749273E+03 E0= -.32749128E+03  d E =-.426737E-01
       N       E                     dE             d eps       ncg     rms          rms(c)
DAV:   1    -0.318830768434E+03    0.91959E-02   -0.39336E+00  1104   0.339E+00    0.936E-01
DAV:   2    -0.318858450194E+03   -0.27682E-01   -0.35882E-01  1440   0.104E+00    0.626E-01
DAV:   3    -0.318857995984E+03    0.45421E-03   -0.84432E-02  1424   0.643E-01    0.406E-01
DAV:   4    -0.318855815671E+03    0.21803E-02   -0.71811E-02  1424   0.377E-01    0.274E-01
DAV:   5    -0.318854615552E+03    0.12001E-02   -0.71119E-03  1464   0.213E-01    0.209E-01
DAV:   6    -0.318854555522E+03    0.60030E-04   -0.24351E-03  1296   0.102E-01    0.163E-01
DAV:   7    -0.318854751367E+03   -0.19584E-03   -0.16546E-03  1448   0.759E-02    0.100E-01
DAV:   8    -0.318854557054E+03    0.19431E-03   -0.29672E-03  1528   0.106E-01    0.612E-02
DAV:   9    -0.318854586768E+03   -0.29714E-04   -0.20905E-04  1320   0.259E-02    0.532E-02
DAV:  10    -0.318854587719E+03   -0.95112E-06   -0.23282E-05   880   0.112E-02
  29 F= -.32751582E+03 E0= -.32751462E+03  d E =-.230920E-01
       N       E                     dE             d eps       ncg     rms          rms(c)
DAV:   1    -0.318633994942E+03    0.22059E+00   -0.35509E+01  1112   0.102E+01    0.310E+00
DAV:   2    -0.318881868581E+03   -0.24787E+00   -0.29199E+00  1424   0.302E+00    0.137E+00
DAV:   3    -0.318877636343E+03    0.42322E-02   -0.29132E-01  1504   0.148E+00    0.104E+00
DAV:   4    -0.318861309519E+03    0.16327E-01   -0.15716E-01  1504   0.109E+00    0.742E-01
DAV:   5    -0.318859377152E+03    0.19324E-02   -0.72005E-02  1472   0.624E-01    0.548E-01
DAV:   6    -0.318857628224E+03    0.17489E-02   -0.25671E-02  1408   0.545E-01    0.246E-01
DAV:   7    -0.318857345724E+03    0.28250E-03   -0.78912E-03  1400   0.332E-01    0.141E-01
DAV:   8    -0.318857249607E+03    0.96117E-04   -0.28703E-03  1312   0.179E-01    0.126E-01
DAV:   9    -0.318857343235E+03   -0.93628E-04   -0.11036E-03  1432   0.599E-02    0.150E-01
DAV:  10    -0.318857544837E+03   -0.20160E-03   -0.28513E-04  1472   0.388E-02    0.194E-01
DAV:  11    -0.318857720083E+03   -0.17525E-03   -0.15042E-04  1288   0.365E-02    0.158E-01
DAV:  12    -0.318857617787E+03    0.10230E-03   -0.12166E-03  1368   0.929E-02    0.152E-01
DAV:  13    -0.318857709729E+03   -0.91942E-04   -0.50019E-04  1224   0.408E-02    0.208E-01
DAV:  14    -0.318857767380E+03   -0.57651E-04   -0.58531E-05  1280   0.116E-02    0.229E-01
DAV:  15    -0.318857773994E+03   -0.66134E-05   -0.52688E-06   696   0.482E-03
  30 F= -.32754585E+03 E0= -.32754426E+03  d E =-.531206E-01
       N       E                     dE             d eps       ncg     rms          rms(c)
DAV:   1    -0.318848472770E+03    0.92946E-02   -0.33432E+00  1104   0.317E+00    0.112E+00
DAV:   2    -0.318868313689E+03   -0.19841E-01   -0.27529E-01  1448   0.965E-01    0.622E-01
DAV:   3    -0.318870769845E+03   -0.24562E-02   -0.46803E-02  1520   0.684E-01    0.351E-01
DAV:   4    -0.318867433997E+03    0.33358E-02   -0.38769E-02  1528   0.687E-01    0.338E-01
DAV:   5    -0.318865661264E+03    0.17727E-02   -0.23835E-02  1568   0.465E-01    0.182E-01
DAV:   6    -0.318863977550E+03    0.16837E-02   -0.75392E-03  1368   0.310E-01    0.120E-01
DAV:   7    -0.318864190373E+03   -0.21282E-03   -0.26638E-03  1208   0.131E-01    0.733E-02
DAV:   8    -0.318864211072E+03   -0.20699E-04   -0.41945E-04  1392   0.416E-02    0.639E-02
DAV:   9    -0.318864212258E+03   -0.11862E-05   -0.51738E-05   976   0.134E-02
  31 F= -.32757305E+03 E0= -.32757154E+03  d E =-.271936E-01
       N       E                     dE             d eps       ncg     rms          rms(c)
DAV:   1    -0.318844824385E+03    0.19387E-01   -0.16981E+00  1104   0.226E+00    0.735E-01
DAV:   2    -0.318856052842E+03   -0.11228E-01   -0.14290E-01  1448   0.718E-01    0.456E-01
DAV:   3    -0.318858895043E+03   -0.28422E-02   -0.37173E-02  1536   0.647E-01    0.282E-01
DAV:   4    -0.318853939238E+03    0.49558E-02   -0.15634E-02  1544   0.483E-01    0.173E-01
DAV:   5    -0.318854024351E+03   -0.85113E-04   -0.38031E-03  1440   0.200E-01    0.165E-01
DAV:   6    -0.318854326890E+03   -0.30254E-03   -0.33813E-03  1424   0.242E-01    0.136E-01
DAV:   7    -0.318853758404E+03    0.56849E-03   -0.15970E-03  1440   0.183E-01    0.471E-02
DAV:   8    -0.318853744806E+03    0.13598E-04   -0.65489E-04  1248   0.800E-02    0.611E-02
DAV:   9    -0.318853771773E+03   -0.26967E-04   -0.28079E-04  1456   0.303E-02    0.682E-02
DAV:  10    -0.318853783393E+03   -0.11620E-04   -0.95347E-06   744   0.675E-03    0.619E-02
DAV:  11    -0.318853846150E+03   -0.62757E-04   -0.59535E-05  1024   0.276E-02    0.656E-02
DAV:  12    -0.318853926889E+03   -0.80739E-04   -0.38785E-05  1024   0.136E-02    0.896E-02
DAV:  13    -0.318853919625E+03    0.72637E-05   -0.11130E-05   712   0.776E-03
  32 F= -.32757734E+03 E0= -.32757584E+03  d E =-.314910E-01
       N       E                     dE             d eps       ncg     rms          rms(c)
DAV:   1    -0.318856980400E+03   -0.30535E-02   -0.80057E-02  1104   0.493E-01    0.193E-01
DAV:   2    -0.318857446856E+03   -0.46646E-03   -0.63231E-03  1432   0.151E-01    0.807E-02
DAV:   3    -0.318857686628E+03   -0.23977E-03   -0.10958E-03  1520   0.116E-01    0.907E-02
DAV:   4    -0.318857387673E+03    0.29896E-03   -0.67215E-04  1472   0.102E-01    0.459E-02
DAV:   5    -0.318857412288E+03   -0.24615E-04   -0.23500E-04  1400   0.531E-02    0.401E-02
DAV:   6    -0.318857397179E+03    0.15109E-04   -0.16655E-04  1280   0.344E-02    0.158E-02
DAV:   7    -0.318857399540E+03   -0.23611E-05   -0.26991E-05   920   0.103E-02
  33 F= -.32757766E+03 E0= -.32757612E+03  d E =-.318077E-01
       N       E                     dE             d eps       ncg     rms          rms(c)
DAV:   1    -0.318862052984E+03   -0.46558E-02   -0.50802E-01  1128   0.126E+00    0.469E-01
DAV:   2    -0.318865786307E+03   -0.37333E-02   -0.42698E-02  1416   0.379E-01    0.149E-01
DAV:   3    -0.318865828436E+03   -0.42128E-04   -0.18526E-03  1464   0.128E-01    0.131E-01
DAV:   4    -0.318865821617E+03    0.68185E-05   -0.16106E-03  1520   0.151E-01    0.103E-01
DAV:   5    -0.318865566404E+03    0.25521E-03   -0.88456E-04  1584   0.111E-01    0.527E-02
DAV:   6    -0.318865556052E+03    0.10352E-04   -0.37868E-04  1208   0.510E-02    0.285E-02
DAV:   7    -0.318865568101E+03   -0.12049E-04   -0.10287E-04  1368   0.187E-02    0.256E-02
DAV:   8    -0.318865565641E+03    0.24602E-05   -0.50599E-06   696   0.535E-03
  34 F= -.32758863E+03 E0= -.32758708E+03  d E =-.109662E-01
       N       E                     dE             d eps       ncg     rms          rms(c)
DAV:   1    -0.318862742902E+03    0.28252E-02   -0.60291E-01  1128   0.138E+00    0.515E-01
DAV:   2    -0.318867248965E+03   -0.45061E-02   -0.51390E-02  1424   0.415E-01    0.165E-01
DAV:   3    -0.318867354539E+03   -0.10557E-03   -0.22199E-03  1464   0.143E-01    0.147E-01
DAV:   4    -0.318867345806E+03    0.87327E-05   -0.20503E-03  1520   0.174E-01    0.117E-01
DAV:   5    -0.318866981149E+03    0.36466E-03   -0.10633E-03  1568   0.124E-01    0.558E-02
DAV:   6    -0.318866981648E+03   -0.49908E-06   -0.46184E-04  1200   0.526E-02    0.322E-02
DAV:   7    -0.318866991644E+03   -0.99958E-05   -0.10105E-04  1360   0.188E-02    0.293E-02
DAV:   8    -0.318866990535E+03    0.11084E-05   -0.54216E-06   696   0.510E-03
  35 F= -.32759279E+03 E0= -.32759121E+03  d E =-.151308E-01
       N       E                     dE             d eps       ncg     rms          rms(c)
DAV:   1    -0.318867249921E+03   -0.25828E-03   -0.48523E-01  1104   0.123E+00    0.378E-01
DAV:   2    -0.318869098804E+03   -0.18489E-02   -0.36138E-02  1464   0.351E-01    0.206E-01
DAV:   3    -0.318869367241E+03   -0.26844E-03   -0.28037E-03  1504   0.189E-01    0.175E-01
DAV:   4    -0.318869667141E+03   -0.29990E-03   -0.49569E-03  1504   0.280E-01    0.151E-01
DAV:   5    -0.318868313051E+03    0.13541E-02   -0.16004E-03  1512   0.167E-01    0.614E-02
DAV:   6    -0.318868435833E+03   -0.12278E-03   -0.12747E-03  1304   0.725E-02    0.655E-02
DAV:   7    -0.318868394709E+03    0.41124E-04   -0.25590E-04  1232   0.357E-02    0.524E-02
DAV:   8    -0.318868367994E+03    0.26714E-04   -0.14348E-05   840   0.135E-02    0.458E-02
DAV:   9    -0.318868365993E+03    0.20017E-05   -0.94680E-06   712   0.628E-03
  36 F= -.32760205E+03 E0= -.32760044E+03  d E =-.926276E-02
       N       E                     dE             d eps       ncg     rms          rms(c)
DAV:   1    -0.318856850263E+03    0.11518E-01   -0.19617E+00  1104   0.247E+00    0.770E-01
DAV:   2    -0.318864067091E+03   -0.72168E-02   -0.14661E-01  1440   0.700E-01    0.395E-01
DAV:   3    -0.318863806084E+03    0.26101E-03   -0.73605E-03  1464   0.296E-01    0.325E-01
DAV:   4    -0.318865381810E+03   -0.15757E-02   -0.15367E-02  1520   0.493E-01    0.256E-01
DAV:   5    -0.318860991277E+03    0.43905E-02   -0.54747E-03  1536   0.296E-01    0.116E-01
DAV:   6    -0.318861897595E+03   -0.90632E-03   -0.36508E-03  1360   0.192E-01    0.156E-01
DAV:   7    -0.318861161495E+03    0.73610E-03   -0.33590E-03  1336   0.187E-01    0.896E-02
DAV:   8    -0.318861177763E+03   -0.16268E-04   -0.37786E-04  1432   0.353E-02    0.735E-02
DAV:   9    -0.318861184162E+03   -0.63994E-05   -0.26237E-05   944   0.105E-02
  37 F= -.32760961E+03 E0= -.32760803E+03  d E =-.168237E-01
       N       E                     dE             d eps       ncg     rms          rms(c)
DAV:   1    -0.318863608886E+03   -0.24311E-02   -0.95596E-01  1112   0.173E+00    0.582E-01
DAV:   2    -0.318870826812E+03   -0.72179E-02   -0.76459E-02  1416   0.538E-01    0.359E-01
DAV:   3    -0.318874784407E+03   -0.39576E-02   -0.15286E-02  1504   0.482E-01    0.315E-01
DAV:   4    -0.318872831739E+03    0.19527E-02   -0.19548E-02  1680   0.554E-01    0.207E-01
DAV:   5    -0.318869845528E+03    0.29862E-02   -0.32473E-03  1504   0.256E-01    0.101E-01
DAV:   6    -0.318870324454E+03   -0.47893E-03   -0.20471E-03  1480   0.126E-01    0.112E-01
DAV:   7    -0.318870013555E+03    0.31090E-03   -0.11606E-03  1296   0.892E-02    0.809E-02
DAV:   8    -0.318869999337E+03    0.14218E-04   -0.13316E-04  1408   0.226E-02    0.800E-02
DAV:   9    -0.318869997301E+03    0.20357E-05   -0.18207E-05   832   0.954E-03
  38 F= -.32761773E+03 E0= -.32761612E+03  d E =-.811512E-02
       N       E                     dE             d eps       ncg     rms          rms(c)
DAV:   1    -0.318870351135E+03   -0.35180E-03   -0.68957E-02  1112   0.466E-01    0.178E-01
DAV:   2    -0.318870926872E+03   -0.57574E-03   -0.57502E-03  1432   0.151E-01    0.132E-01
DAV:   3    -0.318871756819E+03   -0.82995E-03   -0.22267E-03  1536   0.187E-01    0.140E-01
DAV:   4    -0.318871360631E+03    0.39619E-03   -0.28932E-03  1328   0.223E-01    0.953E-02
DAV:   5    -0.318870819343E+03    0.54129E-03   -0.48633E-04  1224   0.102E-01    0.257E-02
DAV:   6    -0.318870845236E+03   -0.25893E-04   -0.17851E-04  1344   0.268E-02    0.248E-02
DAV:   7    -0.318870847691E+03   -0.24545E-05   -0.19676E-05   920   0.893E-03
  39 F= -.32761829E+03 E0= -.32761668E+03  d E =-.867847E-02
       N       E                     dE             d eps       ncg     rms          rms(c)
DAV:   1    -0.318866930072E+03    0.39152E-02   -0.71481E-01  1104   0.150E+00    0.495E-01
DAV:   2    -0.318871659296E+03   -0.47292E-02   -0.56433E-02  1424   0.475E-01    0.308E-01
DAV:   3    -0.318875399753E+03   -0.37405E-02   -0.14763E-02  1504   0.473E-01    0.289E-01
DAV:   4    -0.318872205032E+03    0.31947E-02   -0.14689E-02  1560   0.490E-01    0.184E-01
DAV:   5    -0.318870305030E+03    0.19000E-02   -0.22177E-03  1488   0.210E-01    0.101E-01
DAV:   6    -0.318870332064E+03   -0.27034E-04   -0.18468E-03  1248   0.865E-02    0.750E-02
DAV:   7    -0.318870335041E+03   -0.29769E-05   -0.22750E-04  1320   0.320E-02    0.531E-02
DAV:   8    -0.318870337460E+03   -0.24187E-05   -0.42535E-05   912   0.146E-02
  40 F= -.32762530E+03 E0= -.32762369E+03  d E =-.701002E-02
       N       E                     dE             d eps       ncg     rms          rms(c)
DAV:   1    -0.318842962914E+03    0.27372E-01   -0.28246E+00  1112   0.298E+00    0.994E-01
DAV:   2    -0.318860257223E+03   -0.17294E-01   -0.22480E-01  1416   0.913E-01    0.517E-01
DAV:   3    -0.318865730942E+03   -0.54737E-02   -0.32887E-02  1504   0.696E-01    0.397E-01
DAV:   4    -0.318860347744E+03    0.53832E-02   -0.32894E-02  1536   0.729E-01    0.284E-01
DAV:   5    -0.318856253095E+03    0.40946E-02   -0.73306E-03  1488   0.371E-01    0.180E-01
DAV:   6    -0.318856705854E+03   -0.45276E-03   -0.55636E-03  1272   0.249E-01    0.171E-01
DAV:   7    -0.318856191519E+03    0.51434E-03   -0.18088E-03  1240   0.137E-01    0.578E-02
DAV:   8    -0.318856242510E+03   -0.50991E-04   -0.47247E-04  1504   0.415E-02    0.707E-02
DAV:   9    -0.318856229183E+03    0.13327E-04   -0.32475E-05  1000   0.174E-02    0.805E-02
DAV:  10    -0.318856311266E+03   -0.82084E-04   -0.27390E-05   944   0.238E-02    0.594E-02
DAV:  11    -0.318856479796E+03   -0.16853E-03   -0.36683E-04  1320   0.472E-02    0.559E-02
DAV:  12    -0.318856497376E+03   -0.17580E-04   -0.12600E-04  1224   0.220E-02    0.598E-02
DAV:  13    -0.318856489603E+03    0.77732E-05   -0.70539E-06   656   0.594E-03
  41 F= -.32762565E+03 E0= -.32762403E+03  d E =-.735599E-02
       N       E                     dE             d eps       ncg     rms          rms(c)
DAV:   1    -0.318861866055E+03   -0.53687E-02   -0.59398E-01  1112   0.137E+00    0.470E-01
DAV:   2    -0.318865820372E+03   -0.39543E-02   -0.48196E-02  1424   0.420E-01    0.248E-01
DAV:   3    -0.318869063790E+03   -0.32434E-02   -0.10973E-02  1536   0.405E-01    0.217E-01
DAV:   4    -0.318865883374E+03    0.31804E-02   -0.83043E-03  1584   0.408E-01    0.150E-01
DAV:   5    -0.318865291593E+03    0.59178E-03   -0.18933E-03  1520   0.184E-01    0.102E-01
DAV:   6    -0.318865381707E+03   -0.90114E-04   -0.15152E-03  1432   0.143E-01    0.954E-02
DAV:   7    -0.318865114451E+03    0.26726E-03   -0.62241E-04  1296   0.828E-02    0.228E-02
DAV:   8    -0.318865131238E+03   -0.16788E-04   -0.18884E-04  1368   0.262E-02    0.325E-02
DAV:   9    -0.318865136093E+03   -0.48548E-05   -0.12038E-05   760   0.748E-03
  42 F= -.32762788E+03 E0= -.32762627E+03  d E =-.959088E-02
       N       E                     dE             d eps       ncg     rms          rms(c)
DAV:   1    -0.318866497894E+03   -0.13667E-02   -0.26923E-01  1112   0.917E-01    0.245E-01
DAV:   2    -0.318868131739E+03   -0.16338E-02   -0.19874E-02  1416   0.266E-01    0.140E-01
DAV:   3    -0.318868743788E+03   -0.61205E-03   -0.21387E-03  1488   0.172E-01    0.145E-01
DAV:   4    -0.318868282707E+03    0.46108E-03   -0.20622E-03  1456   0.193E-01    0.102E-01
DAV:   5    -0.318867915347E+03    0.36736E-03   -0.48986E-04  1480   0.972E-02    0.534E-02
DAV:   6    -0.318867910860E+03    0.44872E-05   -0.46182E-04  1208   0.450E-02    0.407E-02
DAV:   7    -0.318867914375E+03   -0.35152E-05   -0.69220E-05  1304   0.165E-02
  43 F= -.32763228E+03 E0= -.32763066E+03  d E =-.439623E-02
       N       E                     dE             d eps       ncg     rms          rms(c)
DAV:   1    -0.318859684918E+03    0.82259E-02   -0.24352E+00  1112   0.276E+00    0.724E-01
DAV:   2    -0.318876100167E+03   -0.16415E-01   -0.17708E-01  1416   0.853E-01    0.525E-01
DAV:   3    -0.318878830549E+03   -0.27304E-02   -0.33585E-02  1440   0.667E-01    0.349E-01
DAV:   4    -0.318875968369E+03    0.28622E-02   -0.19929E-02  1504   0.593E-01    0.268E-01
DAV:   5    -0.318872910143E+03    0.30582E-02   -0.53215E-03  1472   0.332E-01    0.185E-01
DAV:   6    -0.318873283243E+03   -0.37310E-03   -0.39987E-03  1432   0.247E-01    0.168E-01
DAV:   7    -0.318872610844E+03    0.67240E-03   -0.17988E-03  1320   0.168E-01    0.468E-02
DAV:   8    -0.318872708854E+03   -0.98010E-04   -0.73021E-04  1304   0.562E-02    0.744E-02
DAV:   9    -0.318872714504E+03   -0.56504E-05   -0.95825E-05  1440   0.179E-02
  44 F= -.32764160E+03 E0= -.32763996E+03  d E =-.137195E-01
       N       E                     dE             d eps       ncg     rms          rms(c)
DAV:   1    -0.318814164531E+03    0.58544E-01   -0.97305E+00  1112   0.552E+00    0.145E+00
DAV:   2    -0.318877318136E+03   -0.63154E-01   -0.70891E-01  1424   0.171E+00    0.101E+00
DAV:   3    -0.318875488820E+03    0.18293E-02   -0.10692E-01  1360   0.109E+00    0.563E-01
DAV:   4    -0.318872613106E+03    0.28757E-02   -0.32881E-02  1360   0.775E-01    0.454E-01
DAV:   5    -0.318869689914E+03    0.29232E-02   -0.19223E-02  1600   0.601E-01    0.371E-01
DAV:   6    -0.318867501771E+03    0.21881E-02   -0.15621E-02  1536   0.482E-01    0.248E-01
DAV:   7    -0.318868164717E+03   -0.66295E-03   -0.83236E-03  1488   0.389E-01    0.157E-01
DAV:   8    -0.318866772923E+03    0.13918E-02   -0.27849E-03  1304   0.190E-01    0.101E-01
DAV:   9    -0.318866902404E+03   -0.12948E-03   -0.13730E-03  1416   0.675E-02    0.103E-01
DAV:  10    -0.318866939856E+03   -0.37452E-04   -0.88172E-05  1368   0.181E-02    0.119E-01
DAV:  11    -0.318866946604E+03   -0.67481E-05   -0.27694E-05   864   0.116E-02
  45 F= -.32764344E+03 E0= -.32764187E+03  d E =-.155517E-01
       N       E                     dE             d eps       ncg     rms          rms(c)
DAV:   1    -0.318863203658E+03    0.37362E-02   -0.18284E+00  1112   0.239E+00    0.709E-01
DAV:   2    -0.318874396186E+03   -0.11193E-01   -0.12919E-01  1416   0.713E-01    0.509E-01
DAV:   3    -0.318878518725E+03   -0.41225E-02   -0.24471E-02  1488   0.563E-01    0.319E-01
DAV:   4    -0.318877532746E+03    0.98598E-03   -0.22219E-02  1528   0.686E-01    0.277E-01
DAV:   5    -0.318872030620E+03    0.55021E-02   -0.79408E-03  1480   0.354E-01    0.110E-01
DAV:   6    -0.318872394197E+03   -0.36358E-03   -0.40869E-03  1328   0.148E-01    0.971E-02
DAV:   7    -0.318872286343E+03    0.10785E-03   -0.10922E-03  1240   0.862E-02    0.837E-02
DAV:   8    -0.318872276983E+03    0.93597E-05   -0.98499E-05  1376   0.241E-02
  46 F= -.32764570E+03 E0= -.32764405E+03  d E =-.178179E-01
       N       E                     dE             d eps       ncg     rms          rms(c)
DAV:   1    -0.318872258850E+03    0.27493E-04   -0.10590E+00  1112   0.184E+00    0.581E-01
DAV:   2    -0.318885924442E+03   -0.13666E-01   -0.74451E-02  1456   0.804E-01    0.540E-01
DAV:   3    -0.318880277758E+03    0.56467E-02   -0.52338E-02  1440   0.792E-01    0.258E-01
DAV:   4    -0.318879206792E+03    0.10710E-02   -0.82058E-03  1408   0.389E-01    0.182E-01
DAV:   5    -0.318878780641E+03    0.42615E-03   -0.49090E-03  1536   0.287E-01    0.154E-01
DAV:   6    -0.318878220024E+03    0.56062E-03   -0.21010E-03  1504   0.174E-01    0.780E-02
DAV:   7    -0.318878469440E+03   -0.24942E-03   -0.86985E-04  1448   0.127E-01    0.782E-02
DAV:   8    -0.318878218434E+03    0.25101E-03   -0.34969E-04  1320   0.724E-02    0.289E-02
DAV:   9    -0.318878229082E+03   -0.10648E-04   -0.19848E-04  1488   0.275E-02    0.264E-02
DAV:  10    -0.318878233462E+03   -0.43798E-05   -0.37637E-06   728   0.563E-03
  47 F= -.32765484E+03 E0= -.32765321E+03  d E =-.914105E-02
       N       E                     dE             d eps       ncg     rms          rms(c)
DAV:   1    -0.318837839629E+03    0.40389E-01   -0.69095E+00  1112   0.470E+00    0.140E+00
DAV:   2    -0.318884738779E+03   -0.46899E-01   -0.52344E-01  1424   0.153E+00    0.958E-01
DAV:   3    -0.318891436694E+03   -0.66979E-02   -0.13497E-01  1408   0.127E+00    0.492E-01
DAV:   4    -0.318879349414E+03    0.12087E-01   -0.28855E-02  1408   0.777E-01    0.292E-01
DAV:   5    -0.318879678984E+03   -0.32957E-03   -0.10200E-02  1336   0.252E-01    0.302E-01
DAV:   6    -0.318879591159E+03    0.87825E-04   -0.27903E-03  1312   0.175E-01    0.157E-01
DAV:   7    -0.318881108663E+03   -0.15175E-02   -0.29066E-03  1632   0.263E-01    0.114E-01
DAV:   8    -0.318879604375E+03    0.15043E-02   -0.33299E-03  1632   0.262E-01    0.779E-02
DAV:   9    -0.318879559965E+03    0.44410E-04   -0.70653E-04  1344   0.907E-02    0.353E-02
DAV:  10    -0.318879590641E+03   -0.30675E-04   -0.31203E-04  1352   0.333E-02    0.487E-02
DAV:  11    -0.318879557553E+03    0.33088E-04   -0.14065E-05   816   0.190E-02    0.536E-02
DAV:  12    -0.318879559641E+03   -0.20885E-05   -0.82556E-06   744   0.627E-03
  48 F= -.32766353E+03 E0= -.32766204E+03  d E =-.178265E-01
       N       E                     dE             d eps       ncg     rms          rms(c)
DAV:   1    -0.318876478359E+03    0.30792E-02   -0.14494E+00  1120   0.215E+00    0.611E-01
DAV:   2    -0.318886401336E+03   -0.99230E-02   -0.11527E-01  1440   0.620E-01    0.258E-01
DAV:   3    -0.318886345050E+03    0.56286E-04   -0.35655E-03  1392   0.159E-01    0.200E-01
DAV:   4    -0.318886638820E+03   -0.29377E-03   -0.20718E-03  1552   0.192E-01    0.170E-01
DAV:   5    -0.318886343559E+03    0.29526E-03   -0.20021E-03  1568   0.201E-01    0.138E-01
DAV:   6    -0.318886031122E+03    0.31244E-03   -0.12089E-03  1528   0.138E-01    0.585E-02
DAV:   7    -0.318885989496E+03    0.41626E-04   -0.70172E-04  1208   0.688E-02    0.375E-02
DAV:   8    -0.318886003742E+03   -0.14246E-04   -0.15265E-04  1336   0.233E-02    0.240E-02
DAV:   9    -0.318886008955E+03   -0.52126E-05   -0.88015E-06   680   0.683E-03
  49 F= -.32767066E+03 E0= -.32766912E+03  d E =-.712728E-02
       N       E                     dE             d eps       ncg     rms          rms(c)
DAV:   1    -0.318877171549E+03    0.88322E-02   -0.17572E+00  1120   0.237E+00    0.668E-01
DAV:   2    -0.318889386602E+03   -0.12215E-01   -0.13877E-01  1440   0.687E-01    0.310E-01
DAV:   3    -0.318890634390E+03   -0.12478E-02   -0.70157E-03  1424   0.289E-01    0.270E-01
DAV:   4    -0.318889515648E+03    0.11187E-02   -0.48702E-03  1440   0.312E-01    0.193E-01
DAV:   5    -0.318888673859E+03    0.84179E-03   -0.18393E-03  1456   0.184E-01    0.125E-01
DAV:   6    -0.318888751456E+03   -0.77598E-04   -0.17020E-03  1280   0.791E-02    0.731E-02
DAV:   7    -0.318888691985E+03    0.59471E-04   -0.12310E-04  1376   0.295E-02    0.569E-02
DAV:   8    -0.318888693602E+03   -0.16174E-05   -0.49083E-05  1120   0.132E-02
  50 F= -.32767387E+03 E0= -.32767229E+03  d E =-.103441E-01
       N       E                     dE             d eps       ncg     rms          rms(c)
DAV:   1    -0.318888430825E+03    0.26116E-03   -0.12575E+00  1112   0.201E+00    0.557E-01
DAV:   2    -0.318900720036E+03   -0.12289E-01   -0.84867E-02  1448   0.812E-01    0.506E-01
DAV:   3    -0.318896006691E+03    0.47133E-02   -0.42573E-02  1392   0.696E-01    0.250E-01
DAV:   4    -0.318897034715E+03   -0.10280E-02   -0.60211E-03  1384   0.325E-01    0.192E-01
DAV:   5    -0.318895832620E+03    0.12021E-02   -0.44860E-03  1568   0.273E-01    0.154E-01
DAV:   6    -0.318895620900E+03    0.21172E-03   -0.17673E-03  1416   0.135E-01    0.917E-02
DAV:   7    -0.318895972207E+03   -0.35131E-03   -0.85893E-04  1456   0.125E-01    0.874E-02
DAV:   8    -0.318895628232E+03    0.34398E-03   -0.39334E-04  1376   0.777E-02    0.283E-02
DAV:   9    -0.318895644699E+03   -0.16467E-04   -0.19880E-04  1480   0.286E-02    0.209E-02
DAV:  10    -0.318895650223E+03   -0.55239E-05   -0.80188E-06   736   0.895E-03
  51 F= -.32768333E+03 E0= -.32768174E+03  d E =-.945524E-02
       N       E                     dE             d eps       ncg     rms          rms(c)
DAV:   1    -0.318867767265E+03    0.27877E-01   -0.53853E+00  1112   0.416E+00    0.113E+00
DAV:   2    -0.318906985002E+03   -0.39218E-01   -0.37400E-01  1432   0.145E+00    0.916E-01
DAV:   3    -0.318902367304E+03    0.46177E-02   -0.11839E-01  1392   0.110E+00    0.458E-01
DAV:   4    -0.318903879924E+03   -0.15126E-02   -0.19219E-02  1408   0.645E-01    0.340E-01
DAV:   5    -0.318899575174E+03    0.43048E-02   -0.12777E-02  1568   0.501E-01    0.290E-01
DAV:   6    -0.318899055137E+03    0.52004E-03   -0.73737E-03  1368   0.278E-01    0.177E-01
DAV:   7    -0.318900245036E+03   -0.11899E-02   -0.35797E-03  1408   0.276E-01    0.144E-01
DAV:   8    -0.318898890619E+03    0.13544E-02   -0.14999E-03  1400   0.180E-01    0.599E-02
DAV:   9    -0.318899011636E+03   -0.12102E-03   -0.85078E-04  1400   0.598E-02    0.494E-02
DAV:  10    -0.318899020005E+03   -0.83694E-05   -0.57164E-05  1216   0.140E-02
  52 F= -.32769112E+03 E0= -.32768962E+03  d E =-.172436E-01
       N       E                     dE             d eps       ncg     rms          rms(c)
DAV:   1    -0.318897001718E+03    0.20099E-02   -0.23272E+00  1104   0.272E+00    0.794E-01
DAV:   2    -0.318911167444E+03   -0.14166E-01   -0.18431E-01  1416   0.790E-01    0.377E-01
DAV:   3    -0.318911945414E+03   -0.77797E-03   -0.89311E-03  1456   0.342E-01    0.294E-01
DAV:   4    -0.318912530320E+03   -0.58491E-03   -0.96077E-03  1456   0.453E-01    0.264E-01
DAV:   5    -0.318909462909E+03    0.30674E-02   -0.51446E-03  1480   0.311E-01    0.138E-01
DAV:   6    -0.318909366894E+03    0.96015E-04   -0.41560E-03  1216   0.130E-01    0.954E-02
DAV:   7    -0.318909425633E+03   -0.58739E-04   -0.64899E-04  1432   0.479E-02    0.753E-02
DAV:   8    -0.318909429751E+03   -0.41178E-05   -0.19522E-05   872   0.937E-03
  53 F= -.32769759E+03 E0= -.32769608E+03  d E =-.647628E-02
       N       E                     dE             d eps       ncg     rms          rms(c)
DAV:   1    -0.318909842115E+03   -0.41648E-03   -0.42042E-02  1120   0.366E-01    0.125E-01
DAV:   2    -0.318910092537E+03   -0.25042E-03   -0.40140E-03  1424   0.111E-01    0.658E-02
DAV:   3    -0.318910094905E+03   -0.23673E-05   -0.16166E-04  1400   0.302E-02    0.523E-02
DAV:   4    -0.318910156485E+03   -0.61581E-04   -0.10939E-04  1168   0.456E-02    0.452E-02
DAV:   5    -0.318910191545E+03   -0.35060E-04   -0.25477E-04  1104   0.758E-02    0.467E-02
DAV:   6    -0.318910110613E+03    0.80932E-04   -0.10374E-04  1064   0.468E-02    0.984E-03
DAV:   7    -0.318910134054E+03   -0.23440E-04   -0.44989E-05  1176   0.120E-02    0.662E-03
DAV:   8    -0.318910138364E+03   -0.43102E-05   -0.29946E-06   696   0.394E-03
  54 F= -.32769774E+03 E0= -.32769620E+03  d E =-.662709E-02
       N       E                     dE             d eps       ncg     rms          rms(c)
DAV:   1    -0.318917266690E+03   -0.71326E-02   -0.15799E+00  1104   0.220E+00    0.650E-01
DAV:   2    -0.318926528124E+03   -0.92614E-02   -0.12463E-01  1400   0.644E-01    0.289E-01
DAV:   3    -0.318925883486E+03    0.64464E-03   -0.43960E-03  1432   0.149E-01    0.212E-01
DAV:   4    -0.318926291125E+03   -0.40764E-03   -0.16363E-03  1584   0.166E-01    0.186E-01
DAV:   5    -0.318926509962E+03   -0.21884E-03   -0.34446E-03  1616   0.268E-01    0.166E-01
DAV:   6    -0.318925256167E+03    0.12538E-02   -0.17238E-03  1512   0.163E-01    0.465E-02
DAV:   7    -0.318925345114E+03   -0.88947E-04   -0.11852E-03  1272   0.580E-02    0.441E-02
DAV:   8    -0.318925342418E+03    0.26959E-05   -0.40893E-05  1088   0.158E-02
  55 F= -.32770400E+03 E0= -.32770247E+03  d E =-.625854E-02
       N       E                     dE             d eps       ncg     rms          rms(c)
DAV:   1    -0.318928830411E+03   -0.34853E-02   -0.42291E-01  1104   0.114E+00    0.344E-01
DAV:   2    -0.318931352238E+03   -0.25218E-02   -0.33992E-02  1392   0.335E-01    0.152E-01
DAV:   3    -0.318931192162E+03    0.16008E-03   -0.12228E-03  1448   0.768E-02    0.107E-01
DAV:   4    -0.318931276833E+03   -0.84671E-04   -0.36279E-04  1584   0.775E-02    0.916E-02
DAV:   5    -0.318931425113E+03   -0.14828E-03   -0.90824E-04  1592   0.138E-01    0.917E-02
DAV:   6    -0.318931048516E+03    0.37660E-03   -0.46693E-04  1544   0.896E-02    0.224E-02
DAV:   7    -0.318931082794E+03   -0.34278E-04   -0.31758E-04  1256   0.299E-02    0.243E-02
DAV:   8    -0.318931084579E+03   -0.17853E-05   -0.84559E-06   792   0.721E-03
  56 F= -.32770501E+03 E0= -.32770348E+03  d E =-.726452E-02
       N       E                     dE             d eps       ncg     rms          rms(c)
DAV:   1    -0.318928204728E+03    0.28781E-02   -0.13656E+00  1104   0.203E+00    0.579E-01
DAV:   2    -0.318938438465E+03   -0.10234E-01   -0.10652E-01  1424   0.623E-01    0.332E-01
DAV:   3    -0.318941710122E+03   -0.32717E-02   -0.15950E-02  1520   0.501E-01    0.261E-01
DAV:   4    -0.318937754938E+03    0.39552E-02   -0.80567E-03  1584   0.424E-01    0.165E-01
DAV:   5    -0.318937468447E+03    0.28649E-03   -0.18533E-03  1480   0.185E-01    0.140E-01
DAV:   6    -0.318937465341E+03    0.31054E-05   -0.13936E-03  1416   0.152E-01    0.956E-02
DAV:   7    -0.318937331906E+03    0.13344E-03   -0.62667E-04  1376   0.101E-01    0.285E-02
DAV:   8    -0.318937355433E+03   -0.23527E-04   -0.27929E-04  1192   0.463E-02    0.429E-02
DAV:   9    -0.318937361988E+03   -0.65550E-05   -0.82241E-05  1272   0.161E-02
  57 F= -.32771082E+03 E0= -.32770930E+03  d E =-.581127E-02
       N       E                     dE             d eps       ncg     rms          rms(c)
DAV:   1    -0.318935472974E+03    0.18825E-02   -0.57873E-01  1104   0.132E+00    0.363E-01
DAV:   2    -0.318939624237E+03   -0.41513E-02   -0.46687E-02  1424   0.393E-01    0.181E-01
DAV:   3    -0.318940150545E+03   -0.52631E-03   -0.27496E-03  1472   0.193E-01    0.151E-01
DAV:   4    -0.318939732919E+03    0.41763E-03   -0.18712E-03  1472   0.207E-01    0.124E-01
DAV:   5    -0.318939421130E+03    0.31179E-03   -0.71678E-04  1512   0.123E-01    0.774E-02
DAV:   6    -0.318939419983E+03    0.11464E-05   -0.54870E-04  1256   0.698E-02    0.484E-02
DAV:   7    -0.318939425294E+03   -0.53110E-05   -0.18479E-04  1224   0.303E-02    0.208E-02
DAV:   8    -0.318939426578E+03   -0.12838E-05   -0.15384E-05   776   0.977E-03
  58 F= -.32771244E+03 E0= -.32771095E+03  d E =-.742774E-02
       N       E                     dE             d eps       ncg     rms          rms(c)
DAV:   1    -0.318949259868E+03   -0.98346E-02   -0.10882E+00  1104   0.179E+00    0.545E-01
DAV:   2    -0.318957487968E+03   -0.82281E-02   -0.74023E-02  1424   0.675E-01    0.480E-01
DAV:   3    -0.318957100346E+03    0.38762E-03   -0.34048E-02  1472   0.727E-01    0.276E-01
DAV:   4    -0.318952889449E+03    0.42109E-02   -0.80010E-03  1480   0.433E-01    0.149E-01
DAV:   5    -0.318953083185E+03   -0.19374E-03   -0.36098E-03  1432   0.223E-01    0.155E-01
DAV:   6    -0.318952811249E+03    0.27194E-03   -0.27669E-03  1424   0.216E-01    0.973E-02
DAV:   7    -0.318952521942E+03    0.28931E-03   -0.81869E-04  1408   0.127E-01    0.356E-02
DAV:   8    -0.318952521889E+03    0.52172E-07   -0.38379E-04  1216   0.508E-02    0.445E-02
DAV:   9    -0.318952532217E+03   -0.10327E-04   -0.98749E-05  1280   0.182E-02    0.392E-02
DAV:  10    -0.318952531970E+03    0.24671E-06   -0.44277E-06   672   0.459E-03
  59 F= -.32771842E+03 E0= -.32771702E+03  d E =-.598744E-02
       N       E                     dE             d eps       ncg     rms          rms(c)
DAV:   1    -0.318958950990E+03   -0.64188E-02   -0.31099E+00  1104   0.303E+00    0.913E-01
DAV:   2    -0.318974803038E+03   -0.15852E-01   -0.22227E-01  1408   0.985E-01    0.690E-01
DAV:   3    -0.318977161107E+03   -0.23581E-02   -0.54099E-02  1472   0.901E-01    0.385E-01
DAV:   4    -0.318969715995E+03    0.74451E-02   -0.15615E-02  1504   0.616E-01    0.242E-01
DAV:   5    -0.318969475116E+03    0.24088E-03   -0.68947E-03  1288   0.252E-01    0.191E-01
DAV:   6    -0.318969385083E+03    0.90033E-04   -0.43530E-03  1360   0.250E-01    0.137E-01
DAV:   7    -0.318969174084E+03    0.21100E-03   -0.13637E-03  1360   0.192E-01    0.674E-02
DAV:   8    -0.318968949561E+03    0.22452E-03   -0.58650E-04  1352   0.107E-01    0.665E-02
DAV:   9    -0.318969016841E+03   -0.67280E-04   -0.42840E-04  1256   0.492E-02    0.484E-02
DAV:  10    -0.318969050797E+03   -0.33955E-04   -0.71151E-05  1280   0.190E-02    0.350E-02
DAV:  11    -0.318969040593E+03    0.10203E-04   -0.39270E-05   912   0.295E-02    0.836E-03
DAV:  12    -0.318969063916E+03   -0.23323E-04   -0.21391E-05   832   0.785E-03    0.113E-02
DAV:  13    -0.318969070693E+03   -0.67772E-05   -0.29369E-06   696   0.379E-03
  60 F= -.32772241E+03 E0= -.32772110E+03  d E =-.997293E-02
       N       E                     dE             d eps       ncg     rms          rms(c)
DAV:   1    -0.318971928330E+03   -0.28644E-02   -0.69292E-01  1104   0.142E+00    0.391E-01
DAV:   2    -0.318976796272E+03   -0.48679E-02   -0.51388E-02  1416   0.456E-01    0.278E-01
DAV:   3    -0.318977851375E+03   -0.10551E-02   -0.10301E-02  1488   0.399E-01    0.162E-01
DAV:   4    -0.318976232363E+03    0.16190E-02   -0.35817E-03  1512   0.298E-01    0.105E-01
DAV:   5    -0.318976184645E+03    0.47718E-04   -0.94193E-04  1464   0.127E-01    0.929E-02
DAV:   6    -0.318976172358E+03    0.12287E-04   -0.80769E-04  1464   0.115E-01    0.675E-02
DAV:   7    -0.318976125889E+03    0.46468E-04   -0.36506E-04  1456   0.856E-02    0.246E-02
DAV:   8    -0.318976112373E+03    0.13516E-04   -0.16730E-04  1288   0.455E-02    0.325E-02
DAV:   9    -0.318976120517E+03   -0.81439E-05   -0.81942E-05  1304   0.163E-02
  61 F= -.32772636E+03 E0= -.32772510E+03  d E =-.394840E-02
       N       E                     dE             d eps       ncg     rms          rms(c)
DAV:   1    -0.318954570365E+03    0.21542E-01   -0.62288E+00  1104   0.424E+00    0.118E+00
DAV:   2    -0.318995180127E+03   -0.40610E-01   -0.48650E-01  1424   0.128E+00    0.595E-01
DAV:   3    -0.318993966691E+03    0.12134E-02   -0.21756E-02  1360   0.355E-01    0.389E-01
DAV:   4    -0.318993179109E+03    0.78758E-03   -0.34192E-03  1400   0.198E-01    0.294E-01
DAV:   5    -0.318993125905E+03    0.53204E-04   -0.44360E-03  1568   0.256E-01    0.156E-01
DAV:   6    -0.318992639095E+03    0.48681E-03   -0.33788E-03  1432   0.191E-01    0.748E-02
DAV:   7    -0.318992760028E+03   -0.12093E-03   -0.11947E-03  1376   0.755E-02    0.732E-02
DAV:   8    -0.318992732705E+03    0.27323E-04   -0.25633E-04  1272   0.400E-02    0.432E-02
DAV:   9    -0.318992736087E+03   -0.33826E-05   -0.47443E-05  1112   0.238E-02
  62 F= -.32773310E+03 E0= -.32773204E+03  d E =-.106939E-01
       N       E                     dE             d eps       ncg     rms          rms(c)
DAV:   1    -0.318992153638E+03    0.57907E-03   -0.78164E-01  1104   0.150E+00    0.422E-01
DAV:   2    -0.318997409604E+03   -0.52560E-02   -0.62065E-02  1416   0.449E-01    0.194E-01
DAV:   3    -0.318997162937E+03    0.24667E-03   -0.19838E-03  1424   0.989E-02    0.143E-01
DAV:   4    -0.318997076688E+03    0.86248E-04   -0.33236E-04  1384   0.378E-02    0.999E-02
DAV:   5    -0.318997034254E+03    0.42434E-04   -0.23316E-04  1352   0.330E-02    0.421E-02
DAV:   6    -0.318997042280E+03   -0.80262E-05   -0.10521E-04  1336   0.265E-02    0.225E-02
DAV:   7    -0.318997050169E+03   -0.78893E-05   -0.28185E-05   792   0.139E-02
  63 F= -.32773373E+03 E0= -.32773270E+03  d E =-.113201E-01
       N       E                     dE             d eps       ncg     rms          rms(c)
DAV:   1    -0.319001679426E+03   -0.46371E-02   -0.70493E-01  1104   0.142E+00    0.426E-01
DAV:   2    -0.319006111772E+03   -0.44323E-02   -0.56546E-02  1408   0.427E-01    0.186E-01
DAV:   3    -0.319005859020E+03    0.25275E-03   -0.19042E-03  1480   0.935E-02    0.139E-01
DAV:   4    -0.319005768662E+03    0.90358E-04   -0.29150E-04  1416   0.318E-02    0.929E-02
DAV:   5    -0.319005705215E+03    0.63447E-04   -0.18441E-04  1328   0.256E-02    0.358E-02
DAV:   6    -0.319005709244E+03   -0.40289E-05   -0.69013E-05  1296   0.172E-02
  64 F= -.32773900E+03 E0= -.32773797E+03  d E =-.526841E-02
       N       E                     dE             d eps       ncg     rms          rms(c)
DAV:   1    -0.319001527856E+03    0.41774E-02   -0.26397E+00  1104   0.275E+00    0.831E-01
DAV:   2    -0.319018094853E+03   -0.16567E-01   -0.21152E-01  1408   0.825E-01    0.360E-01
DAV:   3    -0.319017120610E+03    0.97424E-03   -0.70637E-03  1480   0.181E-01    0.270E-01
DAV:   4    -0.319016772918E+03    0.34769E-03   -0.11084E-03  1408   0.615E-02    0.179E-01
DAV:   5    -0.319016510645E+03    0.26227E-03   -0.69342E-04  1304   0.475E-02    0.687E-02
DAV:   6    -0.319016517024E+03   -0.63789E-05   -0.25538E-04  1424   0.271E-02    0.399E-02
DAV:   7    -0.319016522257E+03   -0.52331E-05   -0.14354E-05   808   0.923E-03
  65 F= -.32774296E+03 E0= -.32774196E+03  d E =-.922694E-02
       N       E                     dE             d eps       ncg     rms          rms(c)
DAV:   1    -0.319019358301E+03   -0.28413E-02   -0.11957E+00  1104   0.184E+00    0.550E-01
DAV:   2    -0.319026925955E+03   -0.75677E-02   -0.96925E-02  1408   0.550E-01    0.264E-01
DAV:   3    -0.319026437743E+03    0.48821E-03   -0.30470E-03  1448   0.121E-01    0.196E-01
DAV:   4    -0.319026242078E+03    0.19567E-03   -0.53083E-04  1376   0.431E-02    0.127E-01
DAV:   5    -0.319026113672E+03    0.12841E-03   -0.29737E-04  1296   0.309E-02    0.438E-02
DAV:   6    -0.319026113923E+03   -0.25108E-06   -0.89492E-05  1352   0.189E-02
  66 F= -.32774852E+03 E0= -.32774755E+03  d E =-.556586E-02
       N       E                     dE             d eps       ncg     rms          rms(c)
DAV:   1    -0.319011199596E+03    0.14914E-01   -0.41776E+00  1104   0.344E+00    0.104E+00
DAV:   2    -0.319037688016E+03   -0.26488E-01   -0.33851E-01  1408   0.103E+00    0.495E-01
DAV:   3    -0.319035956783E+03    0.17312E-02   -0.10305E-02  1464   0.223E-01    0.375E-01
DAV:   4    -0.319035272359E+03    0.68442E-03   -0.18589E-03  1360   0.800E-02    0.239E-01
DAV:   5    -0.319034807321E+03    0.46504E-03   -0.10610E-03  1312   0.558E-02    0.808E-02
DAV:   6    -0.319034799683E+03    0.76382E-05   -0.27694E-04  1440   0.278E-02    0.536E-02
DAV:   7    -0.319034808484E+03   -0.88008E-05   -0.15459E-05   824   0.883E-03
  67 F= -.32774909E+03 E0= -.32774816E+03  d E =-.613341E-02
       N       E                     dE             d eps       ncg     rms          rms(c)
DAV:   1    -0.319028058328E+03    0.67414E-02   -0.78558E-01  1104   0.149E+00    0.437E-01
DAV:   2    -0.319033000079E+03   -0.49418E-02   -0.62803E-02  1400   0.443E-01    0.211E-01
DAV:   3    -0.319032711456E+03    0.28862E-03   -0.19104E-03  1480   0.955E-02    0.157E-01
DAV:   4    -0.319032609678E+03    0.10178E-03   -0.34623E-04  1376   0.346E-02    0.987E-02
DAV:   5    -0.319032584861E+03    0.24817E-04   -0.16814E-04  1304   0.223E-02    0.356E-02
DAV:   6    -0.319032606022E+03   -0.21161E-04   -0.45112E-05  1120   0.114E-02    0.211E-02
DAV:   7    -0.319032612669E+03   -0.66470E-05   -0.46817E-06   672   0.469E-03
  68 F= -.32775052E+03 E0= -.32774958E+03  d E =-.756017E-02
       N       E                     dE             d eps       ncg     rms          rms(c)
DAV:   1    -0.319024021215E+03    0.85848E-02   -0.11413E+00  1104   0.180E+00    0.508E-01
DAV:   2    -0.319031507219E+03   -0.74860E-02   -0.92730E-02  1416   0.537E-01    0.248E-01
DAV:   3    -0.319031095007E+03    0.41221E-03   -0.27381E-03  1480   0.115E-01    0.188E-01
DAV:   4    -0.319030950980E+03    0.14403E-03   -0.50227E-04  1384   0.413E-02    0.122E-01
DAV:   5    -0.319030856231E+03    0.94748E-04   -0.27348E-04  1328   0.293E-02    0.415E-02
DAV:   6    -0.319030864343E+03   -0.81118E-05   -0.83893E-05  1344   0.153E-02
  69 F= -.32775569E+03 E0= -.32775477E+03  d E =-.517877E-02
       N       E                     dE             d eps       ncg     rms          rms(c)
DAV:   1    -0.319015550064E+03    0.15306E-01   -0.15152E+00  1104   0.208E+00    0.597E-01
DAV:   2    -0.319025452356E+03   -0.99023E-02   -0.12399E-01  1416   0.620E-01    0.290E-01
DAV:   3    -0.319024894939E+03    0.55742E-03   -0.37165E-03  1480   0.134E-01    0.213E-01
DAV:   4    -0.319024694907E+03    0.20003E-03   -0.68615E-04  1376   0.485E-02    0.138E-01
DAV:   5    -0.319024583744E+03    0.11116E-03   -0.35068E-04  1360   0.331E-02    0.479E-02
DAV:   6    -0.319024608114E+03   -0.24370E-04   -0.10231E-04  1384   0.170E-02    0.323E-02
DAV:   7    -0.319024623608E+03   -0.15494E-04   -0.53627E-06   728   0.536E-03    0.245E-02
DAV:   8    -0.319024668893E+03   -0.45284E-04   -0.89969E-06   808   0.602E-03    0.579E-03
DAV:   9    -0.319024690561E+03   -0.21669E-04   -0.40165E-06   744   0.374E-03    0.470E-03
DAV:  10    -0.319024694760E+03   -0.41988E-05   -0.98929E-07   648   0.202E-03
  70 F= -.32775721E+03 E0= -.32775625E+03  d E =-.669509E-02
       N       E                     dE             d eps       ncg     rms          rms(c)
DAV:   1    -0.319015655727E+03    0.90348E-02   -0.16295E+00  1104   0.216E+00    0.610E-01
DAV:   2    -0.319027315908E+03   -0.11660E-01   -0.13335E-01  1424   0.644E-01    0.270E-01
DAV:   3    -0.319026891008E+03    0.42490E-03   -0.38778E-03  1472   0.137E-01    0.215E-01
DAV:   4    -0.319026777952E+03    0.11306E-03   -0.58630E-04  1408   0.451E-02    0.148E-01
DAV:   5    -0.319026700344E+03    0.77608E-04   -0.34165E-04  1336   0.337E-02    0.527E-02
DAV:   6    -0.319026722847E+03   -0.22503E-04   -0.13393E-04  1408   0.191E-02    0.291E-02
DAV:   7    -0.319026728986E+03   -0.61389E-05   -0.67549E-06   712   0.579E-03
  71 F= -.32776164E+03 E0= -.32776067E+03  d E =-.442695E-02
       N       E                     dE             d eps       ncg     rms          rms(c)
DAV:   1    -0.319023142785E+03    0.35801E-02   -0.44460E-01  1104   0.113E+00    0.322E-01
DAV:   2    -0.319026325369E+03   -0.31826E-02   -0.36612E-02  1424   0.337E-01    0.141E-01
DAV:   3    -0.319026211899E+03    0.11347E-03   -0.10678E-03  1472   0.720E-02    0.109E-01
DAV:   4    -0.319026182435E+03    0.29465E-04   -0.16461E-04  1416   0.239E-02    0.741E-02
DAV:   5    -0.319026169955E+03    0.12479E-04   -0.86976E-05  1216   0.171E-02    0.261E-02
DAV:   6    -0.319026179819E+03   -0.98635E-05   -0.30937E-05   936   0.978E-03
  72 F= -.32776224E+03 E0= -.32776127E+03  d E =-.503369E-02
       N       E                     dE             d eps       ncg     rms          rms(c)
DAV:   1    -0.319025201818E+03    0.96814E-03   -0.73939E-01  1104   0.148E+00    0.466E-01
DAV:   2    -0.319030372120E+03   -0.51703E-02   -0.62843E-02  1416   0.450E-01    0.185E-01
DAV:   3    -0.319030142234E+03    0.22989E-03   -0.19512E-03  1480   0.973E-02    0.137E-01
DAV:   4    -0.319030070330E+03    0.71904E-04   -0.31362E-04  1408   0.331E-02    0.920E-02
DAV:   5    -0.319030035238E+03    0.35092E-04   -0.14897E-04  1344   0.234E-02    0.318E-02
DAV:   6    -0.319030043978E+03   -0.87396E-05   -0.48547E-05  1072   0.125E-02
  73 F= -.32776669E+03 E0= -.32776580E+03  d E =-.444669E-02
       N       E                     dE             d eps       ncg     rms          rms(c)
DAV:   1    -0.319027362928E+03    0.26723E-02   -0.52488E-01  1104   0.125E+00    0.394E-01
DAV:   2    -0.319031025067E+03   -0.36621E-02   -0.44654E-02  1416   0.379E-01    0.155E-01
DAV:   3    -0.319030862030E+03    0.16304E-03   -0.13865E-03  1480   0.820E-02    0.114E-01
DAV:   4    -0.319030809204E+03    0.52826E-04   -0.22348E-04  1408   0.280E-02    0.768E-02
DAV:   5    -0.319030780988E+03    0.28216E-04   -0.10419E-04  1312   0.196E-02    0.259E-02
DAV:   6    -0.319030784678E+03   -0.36902E-05   -0.32662E-05   960   0.104E-02
  74 F= -.32776784E+03 E0= -.32776702E+03  d E =-.559437E-02
       N       E                     dE             d eps       ncg     rms          rms(c)
DAV:   1    -0.319025432949E+03    0.53480E-02   -0.91777E-01  1104   0.165E+00    0.506E-01
DAV:   2    -0.319030116547E+03   -0.46836E-02   -0.73221E-02  1368   0.490E-01    0.240E-01
DAV:   3    -0.319029520503E+03    0.59604E-03   -0.25851E-03  1448   0.110E-01    0.172E-01
DAV:   4    -0.319029252011E+03    0.26849E-03   -0.51159E-04  1384   0.415E-02    0.109E-01
DAV:   5    -0.319029061516E+03    0.19050E-03   -0.32633E-04  1280   0.306E-02    0.391E-02
DAV:   6    -0.319029054487E+03    0.70296E-05   -0.84391E-05  1352   0.155E-02
  75 F= -.32777216E+03 E0= -.32777132E+03  d E =-.431755E-02
       N       E                     dE             d eps       ncg     rms          rms(c)
DAV:   1    -0.319019244618E+03    0.98169E-02   -0.11955E+00  1104   0.188E+00    0.579E-01
DAV:   2    -0.319025179474E+03   -0.59349E-02   -0.95343E-02  1360   0.560E-01    0.275E-01
DAV:   3    -0.319024350348E+03    0.82913E-03   -0.34121E-03  1448   0.127E-01    0.197E-01
DAV:   4    -0.319023980551E+03    0.36980E-03   -0.66635E-04  1384   0.476E-02    0.125E-01
DAV:   5    -0.319023749815E+03    0.23074E-03   -0.44288E-04  1280   0.356E-02    0.449E-02
DAV:   6    -0.319023780913E+03   -0.31098E-04   -0.11475E-04  1368   0.180E-02    0.288E-02
DAV:   7    -0.319023811080E+03   -0.30167E-04   -0.61078E-06   736   0.576E-03    0.210E-02
DAV:   8    -0.319023894420E+03   -0.83340E-04   -0.13414E-05   832   0.642E-03    0.514E-03
DAV:   9    -0.319023933561E+03   -0.39141E-04   -0.42397E-06   768   0.374E-03    0.415E-03
DAV:  10    -0.319023947742E+03   -0.14180E-04   -0.12237E-06   664   0.210E-03    0.380E-03
DAV:  11    -0.319023997344E+03   -0.49603E-04   -0.34833E-06   792   0.268E-03    0.125E-03
DAV:  12    -0.319024038438E+03   -0.41094E-04   -0.48660E-06   808   0.226E-03    0.174E-03
DAV:  13    -0.319024045904E+03   -0.74655E-05   -0.41502E-07   640   0.102E-03
  76 F= -.32777381E+03 E0= -.32777296E+03  d E =-.597278E-02
       N       E                     dE             d eps       ncg     rms          rms(c)
DAV:   1    -0.319020316200E+03    0.37222E-02   -0.61482E-01  1112   0.136E+00    0.382E-01
DAV:   2    -0.319024319362E+03   -0.40032E-02   -0.49814E-02  1392   0.404E-01    0.171E-01
DAV:   3    -0.319024146156E+03    0.17321E-03   -0.17271E-03  1464   0.902E-02    0.131E-01
DAV:   4    -0.319024086216E+03    0.59941E-04   -0.24573E-04  1416   0.290E-02    0.934E-02
DAV:   5    -0.319024033151E+03    0.53065E-04   -0.14780E-04  1264   0.222E-02    0.366E-02
DAV:   6    -0.319024037595E+03   -0.44438E-05   -0.67723E-05  1304   0.137E-02
  77 F= -.32777729E+03 E0= -.32777647E+03  d E =-.348280E-02
       N       E                     dE             d eps       ncg     rms          rms(c)
DAV:   1    -0.319010382639E+03    0.13651E-01   -0.16918E+00  1112   0.226E+00    0.635E-01
DAV:   2    -0.319021396990E+03   -0.11014E-01   -0.13742E-01  1392   0.670E-01    0.287E-01
DAV:   3    -0.319020928718E+03    0.46827E-03   -0.47926E-03  1464   0.150E-01    0.216E-01
DAV:   4    -0.319020758579E+03    0.17014E-03   -0.68441E-04  1416   0.486E-02    0.152E-01
DAV:   5    -0.319020616849E+03    0.14173E-03   -0.39548E-04  1328   0.364E-02    0.589E-02
DAV:   6    -0.319020631132E+03   -0.14283E-04   -0.17709E-04  1448   0.222E-02    0.325E-02
DAV:   7    -0.319020640278E+03   -0.91458E-05   -0.95298E-06   736   0.687E-03
  78 F= -.32777951E+03 E0= -.32777873E+03  d E =-.569928E-02
       N       E                     dE             d eps       ncg     rms          rms(c)
DAV:   1    -0.319017006946E+03    0.36242E-02   -0.36792E-01  1104   0.108E+00    0.333E-01
DAV:   2    -0.319019336518E+03   -0.23296E-02   -0.30600E-02  1408   0.317E-01    0.151E-01
DAV:   3    -0.319019187031E+03    0.14949E-03   -0.10030E-03  1464   0.707E-02    0.103E-01
DAV:   4    -0.319019140590E+03    0.46441E-04   -0.21013E-04  1408   0.274E-02    0.642E-02
DAV:   5    -0.319019136260E+03    0.43298E-05   -0.69200E-05  1264   0.152E-02
  79 F= -.32778237E+03 E0= -.32778164E+03  d E =-.285600E-02
       N       E                     dE             d eps       ncg     rms          rms(c)
DAV:   1    -0.319013971712E+03    0.51689E-02   -0.33418E-01  1104   0.103E+00    0.317E-01
DAV:   2    -0.319016035371E+03   -0.20637E-02   -0.27446E-02  1408   0.301E-01    0.144E-01
DAV:   3    -0.319015901046E+03    0.13433E-03   -0.91800E-04  1464   0.674E-02    0.967E-02
DAV:   4    -0.319015857742E+03    0.43303E-04   -0.18977E-04  1408   0.261E-02    0.598E-02
DAV:   5    -0.319015853235E+03    0.45075E-05   -0.61296E-05  1240   0.144E-02
  80 F= -.32778321E+03 E0= -.32778252E+03  d E =-.369454E-02
