PROCAR lm decomposed
# of k-points:    3         # of bands:  184         # of ions:   60

 k-point     1 :    0.00000000 0.00000000 0.00000000     weight = 0.20000000

band     1 # energy  -17.82679411 # occ.  2.00000000
 
ion      s     py     pz     px    dxy    dyz    dz2    dxz  x2-y2    tot
    1  0.003  0.000  0.000  0.000  0.000  0.000  0.000  0.000  0.000  0.004
    2  0.002  0.000  0.000  0.000  0.000  0.000  0.000  0.000  0.000  0.002
    3  0.001  0.000  0.000  0.000  0.000  0.000  0.000  0.000  0.000  0.001
    4  0.002  0.000  0.000  0.000  0.000  0.000  0.000  0.000  0.000  0.002
    5  0.001  0.000  0.000  0.000  0.000  0.000  0.000  0.000  0.000  0.001
    6  0.000  0.000  0.000  0.000  0.000  0.000  0.000  0.000  0.000  0.000
    7  0.000  0.000  0.000  0.000  0.000  0.000  0.000  0.000  0.000  0.000
    8  0.000  0.000  0.000  0.000  0.000  0.000  0.000  0.000  0.000  0.000
    9  0.011  0.000  0.000  0.000  0.000  0.000  0.000  0.000  0.000  0.011
   10  0.009  0.000  0.000  0.000  0.000  0.000  0.000  0.000  0.000  0.009
   11  0.007  0.000  0.000  0.000  0.000  0.000  0.000  0.000  0.000  0.007
   12  0.007  0.000  0.000  0.000  0.000  0.000  0.000  0.000  0.000  0.008
   13  0.003  0.000  0.000  0.000  0.000  0.000  0.000  0.000  0.000  0.003
   14  0.002  0.000  0.000  0.000  0.000  0.000  0.000  0.000  0.000  0.002
   15  0.001  0.000  0.000  0.000  0.000  0.000  0.000  0.000  0.000  0.001
   16  0.001  0.000  0.000  0.000  0.000  0.000  0.000  0.000  0.000  0.001
   17  0.023  0.001  0.000  0.000  0.000  0.000  0.000  0.000  0.000  0.024
   18  0.021  0.001  0.000  0.000  0.000  0.000  0.000  0.000  0.000  0.022
   19  0.015  0.000  0.000  0.000  0.000  0.000  0.000  0.000  0.000  0.015
   20  0.017  0.001  0.000  0.000  0.000  0.000  0.000  0.000  0.000  0.018
   21  0.006  0.000  0.000  0.000  0.000  0.000  0.000  0.000  0.000  0.006
   22  0.005  0.000  0.000  0.000  0.000  0.000  0.000  0.000  0.000  0.006
   23  0.003  0.000  0.000  0.000  0.000  0.000  0.000  0.000  0.000  0.003
   24  0.004  0.000  0.000  0.000  0.000  0.000  0.000  0.000  0.000  0.004
   25  0.028  0.001  0.001  0.000  0.000  0.000  0.000  0.000  0.000  0.030
   26  0.028  0.001  0.001  0.000  0.000  0.000  0.000  0.000  0.000  0.030
   27  0.026  0.001  0.001  0.000  0.000  0.000  0.000  0.000  0.000  0.028
   28  0.029  0.001  0.000  0.000  0.000  0.000  0.000  0.000  0.000  0.030
   29  0.008  0.000  0.000  0.000  0.000  0.000  0.000  0.000  0.000  0.009
   30  0.008  0.000  0.000  0.000  0.000  0.000  0.000  0.000  0.000  0.009
   31  0.006  0.000  0.000  0.000  0.000  0.000  0.000  0.000  0.000  0.006
   32  0.007  0.000  0.000  0.000  0.000  0.000  0.000  0.000  0.000  0.007
   33  0.021  0.001  0.000  0.000  0.000  0.000  0.000  0.000  0.000  0.022
   34  0.023  0.001  0.000  0.000  0.000  0.000  0.000  0.000  0.000  0.024
   35  0.029  0.001  0.000  0.000  0.000  0.000  0.000  0.000  0.000  0.030
   36  0.026  0.001  0.001  0.000  0.000  0.000  0.000  0.000  0.000  0.028
   37  0.005  0.000  0.000  0.000  0.000  0.000  0.000  0.000  0.000  0.006
   38  0.006  0.000  0.000  0.000  0.000  0.000  0.000  0.000  0.000  0.006
   39  0.007  0.000  0.000  0.000  0.000  0.000  0.000  0.000  0.000  0.007
   40  0.006  0.000  0.000  0.000  0.000  0.000  0.000  0.000  0.000  0.006
   41  0.009  0.000  0.000  0.000  0.000  0.000  0.000  0.000  0.000  0.009
   42  0.011  0.000  0.000  0.000  0.000  0.000  0.000  0.000  0.000  0.011
   43  0.017  0.001  0.000  0.000  0.000  0.000  0.000  0.000  0.000  0.018
   44  0.015  0.000  0.000  0.000  0.000  0.000  0.000  0.000  0.000  0.015
   45  0.002  0.000  0.000  0.000  0.000  0.000  0.000  0.000  0.000  0.002
   46  0.003  0.000  0.000  0.000  0.000  0.000  0.000  0.000  0.000  0.003
   47  0.004  0.000  0.000  0.000  0.000  0.000  0.000  0.000  0.000  0.004
   48  0.003  0.000  0.000  0.000  0.000  0.000  0.000  0.000  0.000  0.003
   49  0.002  0.000  0.000  0.000  0.000  0.000  0.000  0.000  0.000  0.002
   50  0.003  0.000  0.000  0.000  0.000  0.000  0.000  0.000  0.000  0.004
   51  0.007  0.000  0.000  0.000  0.000  0.000  0.000  0.000  0.000  0.008
   52  0.007  0.000  0.000  0.000  0.000  0.000  0.000  0.000  0.000  0.007
   53  0.000  0.000  0.000  0.000  0.000  0.000  0.000  0.000  0.000  0.000
   54  0.001  0.000  0.000  0.000  0.000  0.000  0.000  0.000  0.000  0.001
   55  0.001  0.000  0.000  0.000  0.000  0.000  0.000  0.000  0.000  0.001
   56  0.001  0.000  0.000  0.000  0.000  0.000  0.000  0.000  0.000  0.001
   57  0.002  0.000  0.000  0.000  0.000  0.000  0.000  0.000  0.000  0.002
   58  0.001  0.000  0.000  0.000  0.000  0.000  0.000  0.000  0.000  0.001
   59  0.000  0.000  0.000  0.000  0.000  0.000  0.000  0.000  0.000  0.000
   60  0.000  0.000  0.000  0.000  0.000  0.000  0.000  0.000  0.000  0.000
tot    0.492  0.016  0.009  0.000  0.000  0.000  0.000  0.000  0.000  0.517
 
band     2 # energy  -17.75367690 # occ.  2.00000000
 
ion      s     py     pz     px    dxy    dyz    dz2    dxz  x2-y2    tot
    1  0.015  0.001  0.000  0.000  0.000  0.000  0.000  0.000  0.000  0.016
    2  0.011  0.000  0.001  0.000  0.000  0.000  0.000  0.000  0.000  0.012
    3  0.003  0.000  0.000  0.000  0.000  0.000  0.000  0.000  0.000  0.003
    4  0.009  0.000  0.000  0.000  0.000  0.000  0.000  0.000  0.000  0.010
    5  0.002  0.000  0.000  0.000  0.000  0.000  0.000  0.000  0.000  0.003
    6  0.002  0.000  0.000  0.000  0.000  0.000  0.000  0.000  0.000  0.002
    7  0.000  0.000  0.000  0.000  0.000  0.000  0.000  0.000  0.000  0.000
    8  0.001  0.000  0.000  0.000  0.000  0.000  0.000  0.000  0.000  0.001
    9  0.023  0.001  0.000  0.000  0.000  0.000  0.000  0.000  0.000  0.025
   10  0.023  0.001  0.000  0.000  0.000  0.000  0.000  0.000  0.000  0.025
   11  0.027  0.000  0.000  0.000  0.000  0.000  0.000  0.000  0.000  0.028
   12  0.025  0.001  0.000  0.000  0.000  0.000  0.000  0.000  0.000  0.026
   13  0.004  0.000  0.000  0.000  0.000  0.000  0.000  0.000  0.000  0.004
   14  0.004  0.000  0.000  0.000  0.000  0.000  0.000  0.000  0.000  0.004
   15  0.003  0.000  0.000  0.000  0.000  0.000  0.000  0.000  0.000  0.003
   16  0.003  0.000  0.000  0.000  0.000  0.000  0.000  0.000  0.000  0.003
   17  0.011  0.000  0.000  0.000  0.000  0.000  0.000  0.000  0.000  0.012
   18  0.015  0.001  0.000  0.000  0.000  0.000  0.000  0.000  0.000  0.016
   19  0.023  0.001  0.000  0.000  0.000  0.000  0.000  0.000  0.000  0.024
   20  0.020  0.001  0.000  0.000  0.000  0.000  0.000  0.000  0.000  0.021
   21  0.002  0.000  0.000  0.000  0.000  0.000  0.000  0.000  0.000  0.002
   22  0.003  0.000  0.000  0.000  0.000  0.000  0.000  0.000  0.000  0.003
   23  0.003  0.000  0.000  0.000  0.000  0.000  0.000  0.000  0.000  0.003
   24  0.003  0.000  0.000  0.000  0.000  0.000  0.000  0.000  0.000  0.003
   25  0.000  0.000  0.000  0.000  0.000  0.000  0.000  0.000  0.000  0.000
   26  0.000  0.000  0.000  0.000  0.000  0.000  0.000  0.000  0.000  0.000
   27  0.005  0.000  0.000  0.000  0.000  0.000  0.000  0.000  0.000  0.006
   28  0.002  0.000  0.000  0.000  0.000  0.000  0.000  0.000  0.000  0.003
   29  0.000  0.000  0.000  0.000  0.000  0.000  0.000  0.000  0.000  0.000
   30  0.000  0.000  0.000  0.000  0.000  0.000  0.000  0.000  0.000  0.000
   31  0.001  0.000  0.000  0.000  0.000  0.000  0.000  0.000  0.000  0.001
   32  0.000  0.000  0.000  0.000  0.000  0.000  0.000  0.000  0.000  0.000
   33  0.015  0.001  0.000  0.000  0.000  0.000  0.000  0.000  0.000  0.016
   34  0.011  0.000  0.000  0.000  0.000  0.000  0.000  0.000  0.000  0.012
   35  0.002  0.000  0.000  0.000  0.000  0.000  0.000  0.000  0.000  0.003
   36  0.005  0.000  0.000  0.000  0.000  0.000  0.000  0.000  0.000  0.006
   37  0.003  0.000  0.000  0.000  0.000  0.000  0.000  0.000  0.000  0.003
   38  0.002  0.000  0.000  0.000  0.000  0.000  0.000  0.000  0.000  0.002
   39  0.000  0.000  0.000  0.000  0.000  0.000  0.000  0.000  0.000  0.000
   40  0.001  0.000  0.000  0.000  0.000  0.000  0.000  0.000  0.000  0.001
   41  0.023  0.001  0.000  0.000  0.000  0.000  0.000  0.000  0.000  0.025
   42  0.023  0.001  0.000  0.000  0.000  0.000  0.000  0.000  0.000  0.025
   43  0.020  0.001  0.000  0.000  0.000  0.000  0.000  0.000  0.000  0.021
   44  0.023  0.001  0.000  0.000  0.000  0.000  0.000  0.000  0.000  0.024
   45  0.004  0.000  0.000  0.000  0.000  0.000  0.000  0.000  0.000  0.004
   46  0.004  0.000  0.000  0.000  0.000  0.000  0.000  0.000  0.000  0.004
   47  0.003  0.000  0.000  0.000  0.000  0.000  0.000  0.000  0.000  0.003
   48  0.003  0.000  0.000  0.000  0.000  0.000  0.000  0.000  0.000  0.003
   49  0.011  0.000  0.001  0.000  0.000  0.000  0.000  0.000  0.000  0.012
   50  0.015  0.001  0.000  0.000  0.000  0.000  0.000  0.000  0.000  0.016
   51  0.025  0.001  0.000  0.000  0.000  0.000  0.000  0.000  0.000  0.026
   52  0.027  0.000  0.000  0.000  0.000  0.000  0.000  0.000  0.000  0.028
   53  0.002  0.000  0.000  0.000  0.000  0.000  0.000  0.000  0.000  0.002
   54  0.002  0.000  0.000  0.000  0.000  0.000  0.000  0.000  0.000  0.003
   55  0.003  0.000  0.000  0.000  0.000  0.000  0.000  0.000  0.000  0.003
   56  0.003  0.000  0.000  0.000  0.000  0.000  0.000  0.000  0.000  0.003
   57  0.009  0.000  0.000  0.000  0.000  0.000  0.000  0.000  0.000  0.010
   58  0.003  0.000  0.000  0.000  0.000  0.000  0.000  0.000  0.000  0.003
   59  0.001  0.000  0.000  0.000  0.000  0.000  0.000  0.000  0.000  0.001
   60  0.000  0.000  0.000  0.000  0.000  0.000  0.000  0.000  0.000  0.000
tot    0.492  0.015  0.010  0.000  0.000  0.000  0.000  0.000  0.000  0.517
 
band     3 # energy  -17.74873763 # occ.  2.00000000
 
ion      s     py     pz     px    dxy    dyz    dz2    dxz  x2-y2    tot
    1  0.001  0.000  0.000  0.000  0.000  0.000  0.000  0.000  0.000  0.001
    2  0.001  0.000  0.000  0.000  0.000  0.000  0.000  0.000  0.000  0.001
    3  0.000  0.000  0.000  0.000  0.000  0.000  0.000  0.000  0.000  0.000
    4  0.000  0.000  0.000  0.000  0.000  0.000  0.000  0.000  0.000  0.000
    5  0.001  0.000  0.000  0.000  0.000  0.000  0.000  0.000  0.000  0.001
    6  0.001  0.000  0.000  0.000  0.000  0.000  0.000  0.000  0.000  0.001
    7  0.000  0.000  0.000  0.000  0.000  0.000  0.000  0.000  0.000  0.000
    8  0.000  0.000  0.000  0.000  0.000  0.000  0.000  0.000  0.000  0.000
    9  0.003  0.000  0.000  0.000  0.000  0.000  0.000  0.000  0.000  0.003
   10  0.003  0.000  0.000  0.000  0.000  0.000  0.000  0.000  0.000  0.003
   11  0.002  0.000  0.000  0.000  0.000  0.000  0.000  0.000  0.000  0.002
   12  0.002  0.000  0.000  0.000  0.000  0.000  0.000  0.000  0.000  0.002
   13  0.008  0.000  0.000  0.000  0.000  0.000  0.000  0.000  0.000  0.009
   14  0.006  0.000  0.000  0.000  0.000  0.000  0.000  0.000  0.000  0.006
   15  0.003  0.000  0.000  0.000  0.000  0.000  0.000  0.000  0.000  0.003
   16  0.004  0.000  0.000  0.000  0.000  0.000  0.000  0.000  0.000  0.004
   17  0.006  0.000  0.000  0.000  0.000  0.000  0.000  0.000  0.000  0.006
   18  0.005  0.000  0.000  0.000  0.000  0.000  0.000  0.000  0.000  0.005
   19  0.003  0.000  0.000  0.000  0.000  0.000  0.000  0.000  0.000  0.004
   20  0.004  0.000  0.000  0.000  0.000  0.000  0.000  0.000  0.000  0.004
   21  0.026  0.001  0.000  0.000  0.000  0.000  0.000  0.000  0.000  0.027
   22  0.022  0.001  0.001  0.000  0.000  0.000  0.000  0.000  0.000  0.024
   23  0.013  0.000  0.000  0.000  0.000  0.000  0.000  0.000  0.000  0.013
   24  0.016  0.001  0.000  0.000  0.000  0.000  0.000  0.000  0.000  0.017
   25  0.007  0.000  0.000  0.000  0.000  0.000  0.000  0.000  0.000  0.007
   26  0.007  0.000  0.000  0.000  0.000  0.000  0.000  0.000  0.000  0.007
   27  0.005  0.000  0.000  0.000  0.000  0.000  0.000  0.000  0.000  0.006
   28  0.006  0.000  0.000  0.000  0.000  0.000  0.000  0.000  0.000  0.006
   29  0.036  0.001  0.001  0.000  0.000  0.000  0.000  0.000  0.000  0.038
   30  0.036  0.001  0.001  0.000  0.000  0.000  0.000  0.000  0.000  0.038
   31  0.031  0.001  0.001  0.000  0.000  0.000  0.000  0.000  0.000  0.032
   32  0.034  0.001  0.001  0.000  0.000  0.000  0.000  0.000  0.000  0.036
   33  0.005  0.000  0.000  0.000  0.000  0.000  0.000  0.000  0.000  0.005
   34  0.006  0.000  0.000  0.000  0.000  0.000  0.000  0.000  0.000  0.006
   35  0.006  0.000  0.000  0.000  0.000  0.000  0.000  0.000  0.000  0.006
   36  0.005  0.000  0.000  0.000  0.000  0.000  0.000  0.000  0.000  0.006
   37  0.022  0.001  0.001  0.000  0.000  0.000  0.000  0.000  0.000  0.024
   38  0.026  0.001  0.000  0.000  0.000  0.000  0.000  0.000  0.000  0.027
   39  0.034  0.001  0.001  0.000  0.000  0.000  0.000  0.000  0.000  0.036
   40  0.031  0.001  0.001  0.000  0.000  0.000  0.000  0.000  0.000  0.032
   41  0.003  0.000  0.000  0.000  0.000  0.000  0.000  0.000  0.000  0.003
   42  0.003  0.000  0.000  0.000  0.000  0.000  0.000  0.000  0.000  0.003
   43  0.004  0.000  0.000  0.000  0.000  0.000  0.000  0.000  0.000  0.004
   44  0.003  0.000  0.000  0.000  0.000  0.000  0.000  0.000  0.000  0.004
   45  0.006  0.000  0.000  0.000  0.000  0.000  0.000  0.000  0.000  0.006
   46  0.008  0.000  0.000  0.000  0.000  0.000  0.000  0.000  0.000  0.009
   47  0.016  0.001  0.000  0.000  0.000  0.000  0.000  0.000  0.000  0.017
   48  0.013  0.000  0.000  0.000  0.000  0.000  0.000  0.000  0.000  0.013
   49  0.001  0.000  0.000  0.000  0.000  0.000  0.000  0.000  0.000  0.001
   50  0.001  0.000  0.000  0.000  0.000  0.000  0.000  0.000  0.000  0.001
   51  0.002  0.000  0.000  0.000  0.000  0.000  0.000  0.000  0.000  0.002
   52  0.002  0.000  0.000  0.000  0.000  0.000  0.000  0.000  0.000  0.002
   53  0.001  0.000  0.000  0.000  0.000  0.000  0.000  0.000  0.000  0.001
   54  0.001  0.000  0.000  0.000  0.000  0.000  0.000  0.000  0.000  0.001
   55  0.004  0.000  0.000  0.000  0.000  0.000  0.000  0.000  0.000  0.004
   56  0.003  0.000  0.000  0.000  0.000  0.000  0.000  0.000  0.000  0.003
   57  0.000  0.000  0.000  0.000  0.000  0.000  0.000  0.000  0.000  0.000
   58  0.000  0.000  0.000  0.000  0.000  0.000  0.000  0.000  0.000  0.000
   59  0.000  0.000  0.000  0.000  0.000  0.000  0.000  0.000  0.000  0.000
   60  0.000  0.000  0.000  0.000  0.000  0.000  0.000  0.000  0.000  0.000
tot    0.494  0.017  0.009  0.000  0.000  0.000  0.000  0.000  0.000  0.520
 
band     4 # energy  -17.66421681 # occ.  2.00000000
 
ion      s     py     pz     px    dxy    dyz    dz2    dxz  x2-y2    tot
    1  0.022  0.001  0.000  0.000  0.000  0.000  0.000  0.000  0.000  0.024
    2  0.018  0.000  0.001  0.000  0.000  0.000  0.000  0.000  0.000  0.019
    3  0.005  0.000  0.000  0.000  0.000  0.000  0.000  0.000  0.000  0.005
    4  0.016  0.000  0.000  0.000  0.000  0.000  0.000  0.000  0.000  0.016
    5  0.004  0.000  0.000  0.000  0.000  0.000  0.000  0.000  0.000  0.005
    6  0.003  0.000  0.000  0.000  0.000  0.000  0.000  0.000  0.000  0.004
    7  0.000  0.000  0.000  0.000  0.000  0.000  0.000  0.000  0.000  0.001
    8  0.002  0.000  0.000  0.000  0.000  0.000  0.000  0.000  0.000  0.002
    9  0.009  0.000  0.001  0.000  0.000  0.000  0.000  0.000  0.000  0.010
   10  0.015  0.001  0.000  0.000  0.000  0.000  0.000  0.000  0.000  0.016
   11  0.035  0.001  0.000  0.000  0.000  0.000  0.000  0.000  0.000  0.036
   12  0.026  0.001  0.001  0.000  0.000  0.000  0.000  0.000  0.000  0.027
   13  0.002  0.000  0.000  0.000  0.000  0.000  0.000  0.000  0.000  0.002
   14  0.003  0.000  0.000  0.000  0.000  0.000  0.000  0.000  0.000  0.003
   15  0.005  0.000  0.000  0.000  0.000  0.000  0.000  0.000  0.000  0.005
   16  0.004  0.000  0.000  0.000  0.000  0.000  0.000  0.000  0.000  0.004
   17  0.005  0.000  0.000  0.000  0.000  0.000  0.000  0.000  0.000  0.006
   18  0.001  0.000  0.000  0.000  0.000  0.000  0.000  0.000  0.000  0.002
   19  0.003  0.000  0.000  0.000  0.000  0.000  0.000  0.000  0.000  0.003
   20  0.000  0.000  0.000  0.000  0.000  0.000  0.000  0.000  0.000  0.001
   21  0.000  0.000  0.000  0.000  0.000  0.000  0.000  0.000  0.000  0.000
   22  0.000  0.000  0.000  0.000  0.000  0.000  0.000  0.000  0.000  0.000
   23  0.001  0.000  0.000  0.000  0.000  0.000  0.000  0.000  0.000  0.001
   24  0.000  0.000  0.000  0.000  0.000  0.000  0.000  0.000  0.000  0.000
   25  0.025  0.001  0.001  0.000  0.000  0.000  0.000  0.000  0.000  0.026
   26  0.025  0.001  0.001  0.000  0.000  0.000  0.000  0.000  0.000  0.026
   27  0.014  0.000  0.001  0.000  0.000  0.000  0.000  0.000  0.000  0.015
   28  0.021  0.001  0.000  0.000  0.000  0.000  0.000  0.000  0.000  0.022
   29  0.002  0.000  0.000  0.000  0.000  0.000  0.000  0.000  0.000  0.003
   30  0.002  0.000  0.000  0.000  0.000  0.000  0.000  0.000  0.000  0.003
   31  0.001  0.000  0.000  0.000  0.000  0.000  0.000  0.000  0.000  0.001
   32  0.001  0.000  0.000  0.000  0.000  0.000  0.000  0.000  0.000  0.001
   33  0.001  0.000  0.000  0.000  0.000  0.000  0.000  0.000  0.000  0.002
   34  0.005  0.000  0.000  0.000  0.000  0.000  0.000  0.000  0.000  0.006
   35  0.021  0.001  0.000  0.000  0.000  0.000  0.000  0.000  0.000  0.022
   36  0.014  0.000  0.001  0.000  0.000  0.000  0.000  0.000  0.000  0.015
   37  0.000  0.000  0.000  0.000  0.000  0.000  0.000  0.000  0.000  0.000
   38  0.000  0.000  0.000  0.000  0.000  0.000  0.000  0.000  0.000  0.000
   39  0.001  0.000  0.000  0.000  0.000  0.000  0.000  0.000  0.000  0.001
   40  0.001  0.000  0.000  0.000  0.000  0.000  0.000  0.000  0.000  0.001
   41  0.015  0.001  0.000  0.000  0.000  0.000  0.000  0.000  0.000  0.016
   42  0.009  0.000  0.001  0.000  0.000  0.000  0.000  0.000  0.000  0.010
   43  0.000  0.000  0.000  0.000  0.000  0.000  0.000  0.000  0.000  0.001
   44  0.003  0.000  0.000  0.000  0.000  0.000  0.000  0.000  0.000  0.003
   45  0.003  0.000  0.000  0.000  0.000  0.000  0.000  0.000  0.000  0.003
   46  0.002  0.000  0.000  0.000  0.000  0.000  0.000  0.000  0.000  0.002
   47  0.000  0.000  0.000  0.000  0.000  0.000  0.000  0.000  0.000  0.000
   48  0.001  0.000  0.000  0.000  0.000  0.000  0.000  0.000  0.000  0.001
   49  0.018  0.000  0.001  0.000  0.000  0.000  0.000  0.000  0.000  0.019
   50  0.022  0.001  0.000  0.000  0.000  0.000  0.000  0.000  0.000  0.024
   51  0.026  0.001  0.001  0.000  0.000  0.000  0.000  0.000  0.000  0.027
   52  0.035  0.001  0.000  0.000  0.000  0.000  0.000  0.000  0.000  0.036
   53  0.003  0.000  0.000  0.000  0.000  0.000  0.000  0.000  0.000  0.004
   54  0.004  0.000  0.000  0.000  0.000  0.000  0.000  0.000  0.000  0.005
   55  0.004  0.000  0.000  0.000  0.000  0.000  0.000  0.000  0.000  0.004
   56  0.005  0.000  0.000  0.000  0.000  0.000  0.000  0.000  0.000  0.005
   57  0.016  0.000  0.000  0.000  0.000  0.000  0.000  0.000  0.000  0.016
   58  0.005  0.000  0.000  0.000  0.000  0.000  0.000  0.000  0.000  0.005
   59  0.002  0.000  0.000  0.000  0.000  0.000  0.000  0.000  0.000  0.002
   60  0.000  0.000  0.000  0.000  0.000  0.000  0.000  0.000  0.000  0.001
tot    0.491  0.015  0.012  0.000  0.000  0.000  0.000  0.000  0.000  0.518
 
band     5 # energy  -17.65144041 # occ.  2.00000000
 
ion      s     py     pz     px    dxy    dyz    dz2    dxz  x2-y2    tot
    1  0.002  0.000  0.000  0.000  0.000  0.000  0.000  0.000  0.000  0.002
    2  0.001  0.000  0.000  0.000  0.000  0.000  0.000  0.000  0.000  0.002
    3  0.000  0.000  0.000  0.000  0.000  0.000  0.000  0.000  0.000  0.000
    4  0.001  0.000  0.000  0.000  0.000  0.000  0.000  0.000  0.000  0.001
    5  0.008  0.001  0.000  0.000  0.000  0.000  0.000  0.000  0.000  0.009
    6  0.006  0.000  0.000  0.000  0.000  0.000  0.000  0.000  0.000  0.006
    7  0.001  0.000  0.000  0.000  0.000  0.000  0.000  0.000  0.000  0.001
    8  0.004  0.000  0.000  0.000  0.000  0.000  0.000  0.000  0.000  0.004
    9  0.004  0.000  0.000  0.000  0.000  0.000  0.000  0.000  0.000  0.004
   10  0.004  0.000  0.000  0.000  0.000  0.000  0.000  0.000  0.000  0.004
   11  0.004  0.000  0.000  0.000  0.000  0.000  0.000  0.000  0.000  0.004
   12  0.004  0.000  0.000  0.000  0.000  0.000  0.000  0.000  0.000  0.004
   13  0.026  0.001  0.000  0.000  0.000  0.000  0.000  0.000  0.000  0.027
   14  0.023  0.001  0.000  0.000  0.000  0.000  0.000  0.000  0.000  0.024
   15  0.018  0.000  0.000  0.000  0.000  0.000  0.000  0.000  0.000  0.018
   16  0.019  0.001  0.000  0.000  0.000  0.000  0.000  0.000  0.000  0.020
   17  0.002  0.000  0.000  0.000  0.000  0.000  0.000  0.000  0.000  0.002
   18  0.003  0.000  0.000  0.000  0.000  0.000  0.000  0.000  0.000  0.003
   19  0.003  0.000  0.000  0.000  0.000  0.000  0.000  0.000  0.000  0.003
   20  0.003  0.000  0.000  0.000  0.000  0.000  0.000  0.000  0.000  0.003
   21  0.018  0.000  0.001  0.000  0.000  0.000  0.000  0.000  0.000  0.019
   22  0.024  0.001  0.000  0.000  0.000  0.000  0.000  0.000  0.000  0.025
   23  0.028  0.001  0.001  0.000  0.000  0.000  0.000  0.000  0.000  0.029
   24  0.027  0.001  0.001  0.000  0.000  0.000  0.000  0.000  0.000  0.028
   25  0.000  0.000  0.000  0.000  0.000  0.000  0.000  0.000  0.000  0.000
   26  0.000  0.000  0.000  0.000  0.000  0.000  0.000  0.000  0.000  0.000
   27  0.001  0.000  0.000  0.000  0.000  0.000  0.000  0.000  0.000  0.001
   28  0.000  0.000  0.000  0.000  0.000  0.000  0.000  0.000  0.000  0.000
   29  0.000  0.000  0.000  0.000  0.000  0.000  0.000  0.000  0.000  0.000
   30  0.000  0.000  0.000  0.000  0.000  0.000  0.000  0.000  0.000  0.000
   31  0.009  0.000  0.000  0.000  0.000  0.000  0.000  0.000  0.000  0.009
   32  0.004  0.000  0.000  0.000  0.000  0.000  0.000  0.000  0.000  0.005
   33  0.003  0.000  0.000  0.000  0.000  0.000  0.000  0.000  0.000  0.003
   34  0.002  0.000  0.000  0.000  0.000  0.000  0.000  0.000  0.000  0.002
   35  0.000  0.000  0.000  0.000  0.000  0.000  0.000  0.000  0.000  0.000
   36  0.001  0.000  0.000  0.000  0.000  0.000  0.000  0.000  0.000  0.001
   37  0.024  0.001  0.000  0.000  0.000  0.000  0.000  0.000  0.000  0.025
   38  0.018  0.000  0.001  0.000  0.000  0.000  0.000  0.000  0.000  0.019
   39  0.004  0.000  0.000  0.000  0.000  0.000  0.000  0.000  0.000  0.005
   40  0.009  0.000  0.000  0.000  0.000  0.000  0.000  0.000  0.000  0.009
   41  0.004  0.000  0.000  0.000  0.000  0.000  0.000  0.000  0.000  0.004
   42  0.004  0.000  0.000  0.000  0.000  0.000  0.000  0.000  0.000  0.004
   43  0.003  0.000  0.000  0.000  0.000  0.000  0.000  0.000  0.000  0.003
   44  0.003  0.000  0.000  0.000  0.000  0.000  0.000  0.000  0.000  0.003
   45  0.023  0.001  0.000  0.000  0.000  0.000  0.000  0.000  0.000  0.024
   46  0.026  0.001  0.000  0.000  0.000  0.000  0.000  0.000  0.000  0.027
   47  0.027  0.001  0.001  0.000  0.000  0.000  0.000  0.000  0.000  0.028
   48  0.028  0.001  0.001  0.000  0.000  0.000  0.000  0.000  0.000  0.029
   49  0.001  0.000  0.000  0.000  0.000  0.000  0.000  0.000  0.000  0.002
   50  0.002  0.000  0.000  0.000  0.000  0.000  0.000  0.000  0.000  0.002
   51  0.004  0.000  0.000  0.000  0.000  0.000  0.000  0.000  0.000  0.004
   52  0.004  0.000  0.000  0.000  0.000  0.000  0.000  0.000  0.000  0.004
   53  0.006  0.000  0.000  0.000  0.000  0.000  0.000  0.000  0.000  0.006
   54  0.008  0.001  0.000  0.000  0.000  0.000  0.000  0.000  0.000  0.009
   55  0.019  0.001  0.000  0.000  0.000  0.000  0.000  0.000  0.000  0.020
   56  0.018  0.000  0.000  0.000  0.000  0.000  0.000  0.000  0.000  0.018
   57  0.001  0.000  0.000  0.000  0.000  0.000  0.000  0.000  0.000  0.001
   58  0.000  0.000  0.000  0.000  0.000  0.000  0.000  0.000  0.000  0.000
   59  0.004  0.000  0.000  0.000  0.000  0.000  0.000  0.000  0.000  0.004
   60  0.001  0.000  0.000  0.000  0.000  0.000  0.000  0.000  0.000  0.001
tot    0.494  0.017  0.010  0.000  0.000  0.000  0.000  0.000  0.000  0.521
 
band     6 # energy  -17.54699700 # occ.  2.00000000
 
ion      s     py     pz     px    dxy    dyz    dz2    dxz  x2-y2    tot
    1  0.003  0.000  0.000  0.000  0.000  0.000  0.000  0.000  0.000  0.004
    2  0.002  0.000  0.000  0.000  0.000  0.000  0.000  0.000  0.000  0.003
    3  0.000  0.000  0.000  0.000  0.000  0.000  0.000  0.000  0.000  0.000
    4  0.001  0.000  0.000  0.000  0.000  0.000  0.000  0.000  0.000  0.001
    5  0.020  0.001  0.000  0.000  0.000  0.000  0.000  0.000  0.000  0.021
    6  0.015  0.000  0.001  0.000  0.000  0.000  0.000  0.000  0.000  0.016
    7  0.003  0.000  0.000  0.000  0.000  0.000  0.000  0.000  0.000  0.004
    8  0.011  0.000  0.000  0.000  0.000  0.000  0.000  0.000  0.000  0.011
    9  0.002  0.000  0.000  0.000  0.000  0.000  0.000  0.000  0.000  0.002
   10  0.003  0.000  0.000  0.000  0.000  0.000  0.000  0.000  0.000  0.003
   11  0.005  0.000  0.000  0.000  0.000  0.000  0.000  0.000  0.000  0.005
   12  0.004  0.000  0.000  0.000  0.000  0.000  0.000  0.000  0.000  0.004
   13  0.018  0.000  0.001  0.000  0.000  0.000  0.000  0.000  0.000  0.019
   14  0.023  0.001  0.000  0.000  0.000  0.000  0.000  0.000  0.000  0.024
   15  0.034  0.001  0.000  0.000  0.000  0.000  0.000  0.000  0.000  0.035
   16  0.030  0.001  0.001  0.000  0.000  0.000  0.000  0.000  0.000  0.032
   17  0.000  0.000  0.000  0.000  0.000  0.000  0.000  0.000  0.000  0.001
   18  0.000  0.000  0.000  0.000  0.000  0.000  0.000  0.000  0.000  0.000
   19  0.001  0.000  0.000  0.000  0.000  0.000  0.000  0.000  0.000  0.001
   20  0.000  0.000  0.000  0.000  0.000  0.000  0.000  0.000  0.000  0.000
   21  0.002  0.000  0.000  0.000  0.000  0.000  0.000  0.000  0.000  0.002
   22  0.000  0.000  0.000  0.000  0.000  0.000  0.000  0.000  0.000  0.000
   23  0.009  0.000  0.000  0.000  0.000  0.000  0.000  0.000  0.000  0.009
   24  0.003  0.000  0.000  0.000  0.000  0.000  0.000  0.000  0.000  0.004
   25  0.003  0.000  0.000  0.000  0.000  0.000  0.000  0.000  0.000  0.004
   26  0.003  0.000  0.000  0.000  0.000  0.000  0.000  0.000  0.000  0.004
   27  0.001  0.000  0.000  0.000  0.000  0.000  0.000  0.000  0.000  0.002
   28  0.002  0.000  0.000  0.000  0.000  0.000  0.000  0.000  0.000  0.002
   29  0.022  0.001  0.001  0.000  0.000  0.000  0.000  0.000  0.000  0.023
   30  0.022  0.001  0.001  0.000  0.000  0.000  0.000  0.000  0.000  0.023
   31  0.010  0.000  0.001  0.000  0.000  0.000  0.000  0.000  0.000  0.011
   32  0.016  0.001  0.000  0.000  0.000  0.000  0.000  0.000  0.000  0.017
   33  0.000  0.000  0.000  0.000  0.000  0.000  0.000  0.000  0.000  0.000
   34  0.000  0.000  0.000  0.000  0.000  0.000  0.000  0.000  0.000  0.001
   35  0.002  0.000  0.000  0.000  0.000  0.000  0.000  0.000  0.000  0.002
   36  0.001  0.000  0.000  0.000  0.000  0.000  0.000  0.000  0.000  0.002
   37  0.000  0.000  0.000  0.000  0.000  0.000  0.000  0.000  0.000  0.000
   38  0.002  0.000  0.000  0.000  0.000  0.000  0.000  0.000  0.000  0.002
   39  0.016  0.001  0.000  0.000  0.000  0.000  0.000  0.000  0.000  0.017
   40  0.010  0.000  0.001  0.000  0.000  0.000  0.000  0.000  0.000  0.011
   41  0.003  0.000  0.000  0.000  0.000  0.000  0.000  0.000  0.000  0.003
   42  0.002  0.000  0.000  0.000  0.000  0.000  0.000  0.000  0.000  0.002
   43  0.000  0.000  0.000  0.000  0.000  0.000  0.000  0.000  0.000  0.000
   44  0.001  0.000  0.000  0.000  0.000  0.000  0.000  0.000  0.000  0.001
   45  0.023  0.001  0.000  0.000  0.000  0.000  0.000  0.000  0.000  0.024
   46  0.018  0.000  0.001  0.000  0.000  0.000  0.000  0.000  0.000  0.019
   47  0.003  0.000  0.000  0.000  0.000  0.000  0.000  0.000  0.000  0.004
   48  0.009  0.000  0.000  0.000  0.000  0.000  0.000  0.000  0.000  0.009
   49  0.002  0.000  0.000  0.000  0.000  0.000  0.000  0.000  0.000  0.003
   50  0.003  0.000  0.000  0.000  0.000  0.000  0.000  0.000  0.000  0.004
   51  0.004  0.000  0.000  0.000  0.000  0.000  0.000  0.000  0.000  0.004
   52  0.005  0.000  0.000  0.000  0.000  0.000  0.000  0.000  0.000  0.005
   53  0.015  0.000  0.001  0.000  0.000  0.000  0.000  0.000  0.000  0.016
   54  0.020  0.001  0.000  0.000  0.000  0.000  0.000  0.000  0.000  0.021
   55  0.030  0.001  0.001  0.000  0.000  0.000  0.000  0.000  0.000  0.032
   56  0.034  0.001  0.000  0.000  0.000  0.000  0.000  0.000  0.000  0.035
   57  0.001  0.000  0.000  0.000  0.000  0.000  0.000  0.000  0.000  0.001
   58  0.000  0.000  0.000  0.000  0.000  0.000  0.000  0.000  0.000  0.000
   59  0.011  0.000  0.000  0.000  0.000  0.000  0.000  0.000  0.000  0.011
   60  0.003  0.000  0.000  0.000  0.000  0.000  0.000  0.000  0.000  0.004
tot    0.494  0.016  0.012  0.000  0.000  0.000  0.000  0.000  0.000  0.522
 
band     7 # energy  -17.51774259 # occ.  2.00000000
 
ion      s     py     pz     px    dxy    dyz    dz2    dxz  x2-y2    tot
    1  0.020  0.001  0.000  0.000  0.000  0.000  0.000  0.000  0.000  0.021
    2  0.018  0.000  0.001  0.000  0.000  0.000  0.000  0.000  0.000  0.019
    3  0.006  0.000  0.001  0.000  0.000  0.000  0.000  0.000  0.000  0.006
    4  0.017  0.000  0.000  0.000  0.000  0.000  0.000  0.000  0.000  0.017
    5  0.006  0.000  0.000  0.000  0.000  0.000  0.000  0.000  0.000  0.006
    6  0.005  0.000  0.000  0.000  0.000  0.000  0.000  0.000  0.000  0.005
    7  0.001  0.000  0.000  0.000  0.000  0.000  0.000  0.000  0.000  0.001
    8  0.003  0.000  0.000  0.000  0.000  0.000  0.000  0.000  0.000  0.003
    9  0.001  0.000  0.000  0.000  0.000  0.000  0.000  0.000  0.000  0.002
   10  0.000  0.000  0.000  0.000  0.000  0.000  0.000  0.000  0.000  0.001
   11  0.023  0.001  0.000  0.000  0.000  0.000  0.000  0.000  0.000  0.023
   12  0.010  0.000  0.001  0.000  0.000  0.000  0.000  0.000  0.000  0.011
   13  0.000  0.000  0.000  0.000  0.000  0.000  0.000  0.000  0.000  0.000
   14  0.000  0.000  0.000  0.000  0.000  0.000  0.000  0.000  0.000  0.000