Generic Input                           
           1
     3.342886    0.000000    0.000000
     0.000000   27.372864    0.000000
     0.000000    0.000000   52.811233
   P 
  60
Direct configuration=     1
   0.00000000  0.36532531  0.26547642
   0.50000000  0.36532531  0.23748943
   0.00000000  0.44362617  0.19606991
   0.50000000  0.44362617  0.22405691
   0.00000000  0.55637383  0.26547642
   0.50000000  0.55637383  0.23748943
   0.00000000  0.63467469  0.19606991
   0.50000000  0.63467469  0.22405691
   0.00000000  0.36532531  0.34831545
   0.50000000  0.36532531  0.32032845
   0.00000000  0.44362617  0.27890894
   0.50000000  0.44362617  0.30689594
   0.00000000  0.55637383  0.34831545
   0.50000000  0.55637383  0.32032845
   0.00000000  0.63467469  0.27890894
   0.50000000  0.63467469  0.30689594
   0.00000000  0.36532531  0.43115447
   0.50000000  0.36532531  0.40316748
   0.00000000  0.44362617  0.36174796
   0.50000000  0.44362617  0.38973496
   0.00000000  0.55637383  0.43115447
   0.50000000  0.55637383  0.40316748
   0.00000000  0.63467469  0.36174796
   0.50000000  0.63467469  0.38973496
   0.00000000  0.36532531  0.51399350
   0.50000000  0.36532531  0.48600650
   0.00000000  0.44362617  0.44458699
   0.50000000  0.44362617  0.47257399
   0.00000000  0.55637383  0.51399350
   0.50000000  0.55637383  0.48600650
   0.00000000  0.63467469  0.44458699
   0.50000000  0.63467469  0.47257399
   0.00000000  0.36532531  0.59683252
   0.50000000  0.36532531  0.56884553
   0.00000000  0.44362617  0.52742601
   0.50000000  0.44362617  0.55541301
   0.00000000  0.55637383  0.59683252
   0.50000000  0.55637383  0.56884553
   0.00000000  0.63467469  0.52742601
   0.50000000  0.63467469  0.55541301
   0.00000000  0.36532531  0.67967155
   0.50000000  0.36532531  0.65168455
   0.00000000  0.44362617  0.61026504
   0.50000000  0.44362617  0.63825204
   0.00000000  0.55637383  0.67967155
   0.50000000  0.55637383  0.65168455
   0.00000000  0.63467469  0.61026504
   0.50000000  0.63467469  0.63825204
   0.00000000  0.36532531  0.76251057
   0.50000000  0.36532531  0.73452358
   0.00000000  0.44362617  0.69310406
   0.50000000  0.44362617  0.72109106
   0.00000000  0.55637383  0.76251057
   0.50000000  0.55637383  0.73452358
   0.00000000  0.63467469  0.69310406
   0.50000000  0.63467469  0.72109106
   0.00000000  0.44362617  0.77594309
   0.50000000  0.44362617  0.80393009
   0.00000000  0.63467469  0.77594309
   0.50000000  0.63467469  0.80393009
Generic Input                           
           1
     3.318887    0.000000    0.000000
     0.000000   27.631085    0.000000
     0.000000    0.000000   52.416262
   P 
  60
Direct configuration=     2
   0.00000000  0.36510038  0.26538026
   0.50000000  0.36529256  0.23765229
   0.00000000  0.44367260  0.19722577
   0.50000000  0.44374211  0.22298553
   0.00000000  0.55653713  0.26563004
   0.50000000  0.55618422  0.23751262
   0.00000000  0.63482775  0.19732735
   0.50000000  0.63494718  0.22274081
   0.00000000  0.36515499  0.34819909
   0.50000000  0.36522103  0.32038947
   0.00000000  0.44314664  0.27872061
   0.50000000  0.44372699  0.30695572
   0.00000000  0.55659885  0.34838088
   0.50000000  0.55648117  0.32018795
   0.00000000  0.63424181  0.27895061
   0.50000000  0.63519421  0.30676834
   0.00000000  0.36514127  0.43102925
   0.50000000  0.36524243  0.40328845
   0.00000000  0.44340962  0.36169246
   0.50000000  0.44342113  0.38980208
   0.00000000  0.55656122  0.43121639
   0.50000000  0.55662455  0.40309626
   0.00000000  0.63472977  0.36188296
   0.50000000  0.63486716  0.38962465
   0.00000000  0.36517264  0.51385979
   0.50000000  0.36517264  0.48614021
   0.00000000  0.44342082  0.44452113
   0.50000000  0.44342103  0.47263229
   0.00000000  0.55658085  0.51405103
   0.50000000  0.55658085  0.48594897
   0.00000000  0.63481060  0.44471029
   0.50000000  0.63482811  0.47244490
   0.00000000  0.36524243  0.59671155
   0.50000000  0.36514127  0.56897075
   0.00000000  0.44342103  0.52736771
   0.50000000  0.44342082  0.55547887
   0.00000000  0.55662455  0.59690374
   0.50000000  0.55656122  0.56878361
   0.00000000  0.63482811  0.52755510
   0.50000000  0.63481060  0.55528971
   0.00000000  0.36522103  0.67961053
   0.50000000  0.36515499  0.65180091
   0.00000000  0.44342113  0.61019792
   0.50000000  0.44340962  0.63830754
   0.00000000  0.55648117  0.67981205
   0.50000000  0.55659885  0.65161912
   0.00000000  0.63486716  0.61037535
   0.50000000  0.63472977  0.63811704
   0.00000000  0.36529256  0.76234771
   0.50000000  0.36510038  0.73461974
   0.00000000  0.44372699  0.69304428
   0.50000000  0.44314664  0.72127939
   0.00000000  0.55618422  0.76248738
   0.50000000  0.55653713  0.73436996
   0.00000000  0.63519421  0.69323166
   0.50000000  0.63424181  0.72104939
   0.00000000  0.44374211  0.77701447
   0.50000000  0.44367260  0.80277423
   0.00000000  0.63494718  0.77725919
   0.50000000  0.63482775  0.80267265
Generic Input                           
           1
     3.324875    0.000000    0.000000
     0.000000   27.566657    0.000000
     0.000000    0.000000   52.514811
   P 
  60
Direct configuration=     3
   0.00000000  0.36515598  0.26540444
   0.50000000  0.36530066  0.23761135
   0.00000000  0.44366113  0.19693520
   0.50000000  0.44371345  0.22325486
   0.00000000  0.55649676  0.26559142
   0.50000000  0.55623109  0.23750679
   0.00000000  0.63478992  0.19701125
   0.50000000  0.63487983  0.22307166
   0.00000000  0.36519709  0.34822834
   0.50000000  0.36524681  0.32037413
   0.00000000  0.44326517  0.27876795
   0.50000000  0.44370207  0.30694069
   0.00000000  0.55654323  0.34836443
   0.50000000  0.55645464  0.32022327
   0.00000000  0.63434881  0.27894014
   0.50000000  0.63506580  0.30680042
   0.00000000  0.36518676  0.43106073
   0.50000000  0.36526291  0.40325804
   0.00000000  0.44346315  0.36170641
   0.50000000  0.44347181  0.38978521
   0.00000000  0.55651490  0.43120083
   0.50000000  0.55656258  0.40311416
   0.00000000  0.63471616  0.36184902
   0.50000000  0.63481959  0.38965238
   0.00000000  0.36521038  0.51389340
   0.50000000  0.36521038  0.48610660
   0.00000000  0.44347157  0.44453769
   0.50000000  0.44347173  0.47261763
   0.00000000  0.55652968  0.51403657
   0.50000000  0.55652968  0.48596343
   0.00000000  0.63477700  0.44467929
   0.50000000  0.63479019  0.47247735
   0.00000000  0.36526291  0.59674196
   0.50000000  0.36518676  0.56893927
   0.00000000  0.44347173  0.52738237
   0.50000000  0.44347157  0.55546231
   0.00000000  0.55656258  0.59688584
   0.50000000  0.55651490  0.56879917
   0.00000000  0.63479019  0.52752265
   0.50000000  0.63477700  0.55532071
   0.00000000  0.36524681  0.67962587
   0.50000000  0.36519709  0.65177166
   0.00000000  0.44347181  0.61021479
   0.50000000  0.44346315  0.63829359
   0.00000000  0.55645464  0.67977673
   0.50000000  0.55654323  0.65163557
   0.00000000  0.63481959  0.61034762
   0.50000000  0.63471616  0.63815098
   0.00000000  0.36530066  0.76238865
   0.50000000  0.36515598  0.73459556
   0.00000000  0.44370207  0.69305931
   0.50000000  0.44326517  0.72123205
   0.00000000  0.55623109  0.76249321
   0.50000000  0.55649676  0.73440858
   0.00000000  0.63506580  0.69319958
   0.50000000  0.63434881  0.72105986
   0.00000000  0.44371345  0.77674514
   0.50000000  0.44366113  0.80306480
   0.00000000  0.63487983  0.77692834
   0.50000000  0.63478992  0.80298875
Generic Input                           
           1
     3.330897    0.000000    0.000000
     0.000000   27.705072    0.000000
     0.000000    0.000000   52.649510
   P 
  60
Direct configuration=     4
   0.00000000  0.36507292  0.26544205
   0.50000000  0.36540224  0.23762254
   0.00000000  0.44388914  0.19706787
   0.50000000  0.44341572  0.22320201
   0.00000000  0.55662176  0.26574853
   0.50000000  0.55639098  0.23751219
   0.00000000  0.63513904  0.19710417
   0.50000000  0.63460595  0.22293708
   0.00000000  0.36512580  0.34826786
   0.50000000  0.36531830  0.32028791
   0.00000000  0.44275277  0.27856321
   0.50000000  0.44368661  0.30699881
   0.00000000  0.55677635  0.34845113
   0.50000000  0.55675585  0.32007743
   0.00000000  0.63399024  0.27880429
   0.50000000  0.63535241  0.30682332
   0.00000000  0.36512157  0.43111351
   0.50000000  0.36527827  0.40319861
   0.00000000  0.44316865  0.36160347
   0.50000000  0.44323255  0.38989842
   0.00000000  0.55676146  0.43130699
   0.50000000  0.55687617  0.40299893
   0.00000000  0.63466529  0.36179502
   0.50000000  0.63489487  0.38972426
   0.00000000  0.36517849  0.51395072
   0.50000000  0.36517849  0.48604928
   0.00000000  0.44320013  0.44442695
   0.50000000  0.44321014  0.47272339
   0.00000000  0.55680071  0.51414628
   0.50000000  0.55680071  0.48585372
   0.00000000  0.63478953  0.44462083
   0.50000000  0.63482693  0.47253309
   0.00000000  0.36527827  0.59680139
   0.50000000  0.36512157  0.56888649
   0.00000000  0.44321014  0.52727661
   0.50000000  0.44320013  0.55557305
   0.00000000  0.55687617  0.59700107
   0.50000000  0.55676146  0.56869301
   0.00000000  0.63482693  0.52746691
   0.50000000  0.63478953  0.55537917
   0.00000000  0.36531830  0.67971209
   0.50000000  0.36512580  0.65173214
   0.00000000  0.44323255  0.61010158
   0.50000000  0.44316865  0.63839653
   0.00000000  0.55675585  0.67992257
   0.50000000  0.55677635  0.65154887
   0.00000000  0.63489487  0.61027574
   0.50000000  0.63466529  0.63820498
   0.00000000  0.36540224  0.76237746
   0.50000000  0.36507292  0.73455795
   0.00000000  0.44368661  0.69300119
   0.50000000  0.44275277  0.72143679
   0.00000000  0.55639098  0.76248781
   0.50000000  0.55662176  0.73425147
   0.00000000  0.63535241  0.69317668
   0.50000000  0.63399024  0.72119571
   0.00000000  0.44341572  0.77679799
   0.50000000  0.44388914  0.80293213
   0.00000000  0.63460595  0.77706292
   0.50000000  0.63513904  0.80289583
Generic Input                           
           1
     3.333984    0.000000    0.000000
     0.000000   27.776025    0.000000
     0.000000    0.000000   52.718559
   P 
  60
Direct configuration=     5
   0.00000000  0.36503055  0.26546128
   0.50000000  0.36545406  0.23762826
   0.00000000  0.44400544  0.19713571
   0.50000000  0.44326386  0.22317498
   0.00000000  0.55668552  0.26582885
   0.50000000  0.55647253  0.23751496
   0.00000000  0.63531711  0.19715168
   0.50000000  0.63446626  0.22286827
   0.00000000  0.36508943  0.34828807
   0.50000000  0.36535477  0.32024382
   0.00000000  0.44249142  0.27845853
   0.50000000  0.44367873  0.30702853
   0.00000000  0.55689526  0.34849547
   0.50000000  0.55690948  0.32000286
   0.00000000  0.63380734  0.27873484
   0.50000000  0.63549860  0.30683503
   0.00000000  0.36508832  0.43114049
   0.50000000  0.36528611  0.40316822
   0.00000000  0.44301844  0.36155083
   0.50000000  0.44311052  0.38995631
   0.00000000  0.55688721  0.43136127
   0.50000000  0.55703612  0.40294002
   0.00000000  0.63463935  0.36176741
   0.50000000  0.63493327  0.38976102
   0.00000000  0.36516223  0.51398002
   0.50000000  0.36516223  0.48601998
   0.00000000  0.44306168  0.44437033
   0.50000000  0.44307672  0.47277746
   0.00000000  0.55693895  0.51420237
   0.50000000  0.55693895  0.48579763
   0.00000000  0.63479592  0.44459094
   0.50000000  0.63484568  0.47256159
   0.00000000  0.36528611  0.59683178
   0.50000000  0.36508832  0.56885951
   0.00000000  0.44307672  0.52722254
   0.50000000  0.44306168  0.55562967
   0.00000000  0.55703612  0.59705998
   0.50000000  0.55688721  0.56863873
   0.00000000  0.63484568  0.52743841
   0.50000000  0.63479592  0.55540906
   0.00000000  0.36535477  0.67975618
   0.50000000  0.36508943  0.65171193
   0.00000000  0.44311052  0.61004369
   0.50000000  0.44301844  0.63844917
   0.00000000  0.55690948  0.67999714
   0.50000000  0.55689526  0.65150453
   0.00000000  0.63493327  0.61023898
   0.50000000  0.63463935  0.63823259
   0.00000000  0.36545406  0.76237174
   0.50000000  0.36503055  0.73453872
   0.00000000  0.44367873  0.69297147
   0.50000000  0.44249142  0.72154147
   0.00000000  0.55647253  0.76248504
   0.50000000  0.55668552  0.73417115
   0.00000000  0.63549860  0.69316497
   0.50000000  0.63380734  0.72126516
   0.00000000  0.44326386  0.77682502
   0.50000000  0.44400544  0.80286429
   0.00000000  0.63446626  0.77713173
   0.50000000  0.63531711  0.80284832
Generic Input                           
           1
     3.332311    0.000000    0.000000
     0.000000   27.860086    0.000000
     0.000000    0.000000   52.704738
   P 
  60
Direct configuration=     6
   0.00000000  0.36497347  0.26546312
   0.50000000  0.36558503  0.23765911
   0.00000000  0.44424824  0.19718654
   0.50000000  0.44290337  0.22322368
   0.00000000  0.55677263  0.26587481
   0.50000000  0.55667305  0.23760973
   0.00000000  0.63567921  0.19712780
   0.50000000  0.63411225  0.22287970
   0.00000000  0.36509718  0.34826346
   0.50000000  0.36553204  0.32021989
   0.00000000  0.44201820  0.27839326
   0.50000000  0.44354866  0.30695220
   0.00000000  0.55715561  0.34845946
   0.50000000  0.55733240  0.31998617
   0.00000000  0.63352835  0.27867316
   0.50000000  0.63562301  0.30678064
   0.00000000  0.36510192  0.43113961
   0.50000000  0.36535958  0.40316169
   0.00000000  0.44266499  0.36156118
   0.50000000  0.44283267  0.38995434
   0.00000000  0.55718269  0.43135045
   0.50000000  0.55739132  0.40294337
   0.00000000  0.63453634  0.36176807
   0.50000000  0.63493612  0.38977115
   0.00000000  0.36520088  0.51398382
   0.50000000  0.36520088  0.48601618
   0.00000000  0.44273371  0.44437501
   0.50000000  0.44276610  0.47276840
   0.00000000  0.55725768  0.51419632
   0.50000000  0.55725768  0.48580368
   0.00000000  0.63473995  0.44458722
   0.50000000  0.63481418  0.47256293
   0.00000000  0.36535958  0.59683831
   0.50000000  0.36510192  0.56886039
   0.00000000  0.44276610  0.52723160
   0.50000000  0.44273371  0.55562499
   0.00000000  0.55739132  0.59705663
   0.50000000  0.55718269  0.56864955
   0.00000000  0.63481418  0.52743707
   0.50000000  0.63473995  0.55541278
   0.00000000  0.36553204  0.67978011
   0.50000000  0.36509718  0.65173654
   0.00000000  0.44283267  0.61004566
   0.50000000  0.44266499  0.63843882
   0.00000000  0.55733240  0.68001383
   0.50000000  0.55715561  0.65154054
   0.00000000  0.63493612  0.61022885
   0.50000000  0.63453634  0.63823193
   0.00000000  0.36558503  0.76234089
   0.50000000  0.36497347  0.73453688
   0.00000000  0.44354866  0.69304780
   0.50000000  0.44201820  0.72160674
   0.00000000  0.55667305  0.76239027
   0.50000000  0.55677263  0.73412519
   0.00000000  0.63562301  0.69321936
   0.50000000  0.63352835  0.72132684
   0.00000000  0.44290337  0.77677632
   0.50000000  0.44424824  0.80281346
   0.00000000  0.63411225  0.77712030
   0.50000000  0.63567921  0.80287220
Generic Input                           
           1
     3.327294    0.000000    0.000000
     0.000000   28.112267    0.000000
     0.000000    0.000000   52.663276
   P 
  60
Direct configuration=     7
   0.00000000  0.36480275  0.26546867
   0.50000000  0.36597675  0.23775171
   0.00000000  0.44497446  0.19733905
   0.50000000  0.44182518  0.22336981
   0.00000000  0.55703317  0.26601272
   0.50000000  0.55727281  0.23789412
   0.00000000  0.63676223  0.19705615
   0.50000000  0.63305342  0.22291400
   0.00000000  0.36512034  0.34818960
   0.50000000  0.36606225  0.32014808
   0.00000000  0.44060282  0.27819741
   0.50000000  0.44315962  0.30672313
   0.00000000  0.55793432  0.34835142
   0.50000000  0.55859735  0.31993608
   0.00000000  0.63269391  0.27848808
   0.50000000  0.63599512  0.30661742
   0.00000000  0.36514260  0.43113695
   0.50000000  0.36557934  0.40314208
   0.00000000  0.44160783  0.36159224
   0.50000000  0.44200165  0.38994841
   0.00000000  0.55806645  0.43131799
   0.50000000  0.55845371  0.40295341
   0.00000000  0.63422826  0.36177005
   0.50000000  0.63494466  0.38980156
   0.00000000  0.36531649  0.51399523
   0.50000000  0.36531649  0.48600477
   0.00000000  0.44175279  0.44438903
   0.50000000  0.44183707  0.47274122
   0.00000000  0.55821098  0.51417814
   0.50000000  0.55821098  0.48582186
   0.00000000  0.63457255  0.44457607
   0.50000000  0.63471999  0.47256698
   0.00000000  0.36557934  0.59685792
   0.50000000  0.36514260  0.56886305
   0.00000000  0.44183707  0.52725878
   0.50000000  0.44175279  0.55561097
   0.00000000  0.55845371  0.59704659
   0.50000000  0.55806645  0.56868201
   0.00000000  0.63471999  0.52743302
   0.50000000  0.63457255  0.55542393
   0.00000000  0.36606225  0.67985192
   0.50000000  0.36512034  0.65181040
   0.00000000  0.44200165  0.61005159
   0.50000000  0.44160783  0.63840776
   0.00000000  0.55859735  0.68006392
   0.50000000  0.55793432  0.65164858
   0.00000000  0.63494466  0.61019844
   0.50000000  0.63422826  0.63822995
   0.00000000  0.36597675  0.76224829
   0.50000000  0.36480275  0.73453133
   0.00000000  0.44315962  0.69327687
   0.50000000  0.44060282  0.72180259
   0.00000000  0.55727281  0.76210588
   0.50000000  0.55703317  0.73398728
   0.00000000  0.63599512  0.69338258
   0.50000000  0.63269391  0.72151192
   0.00000000  0.44182518  0.77663019
   0.50000000  0.44497446  0.80266095
   0.00000000  0.63305342  0.77708600
   0.50000000  0.63676223  0.80294385
Generic Input                           
           1
     3.317258    0.000000    0.000000
     0.000000   28.616631    0.000000
     0.000000    0.000000   52.580352
   P 
  60
Direct configuration=     8
   0.00000000  0.36446437  0.26547976
   0.50000000  0.36675317  0.23793704
   0.00000000  0.44641385  0.19764432
   0.50000000  0.43968814  0.22366231
   0.00000000  0.55754958  0.26628875
   0.50000000  0.55846157  0.23846334
   0.00000000  0.63890883  0.19691274
   0.50000000  0.63095476  0.22298264
   0.00000000  0.36516626  0.34804175
   0.50000000  0.36711316  0.32000435
   0.00000000  0.43779747  0.27780538
   0.50000000  0.44238851  0.30626465
   0.00000000  0.55947776  0.34813516
   0.50000000  0.56110455  0.31983584
   0.00000000  0.63104000  0.27811763
   0.50000000  0.63673266  0.30629071
   0.00000000  0.36522323  0.43113162
   0.50000000  0.36601491  0.40310283
   0.00000000  0.43951248  0.36165440
   0.50000000  0.44035452  0.38993655
   0.00000000  0.55981811  0.43125302
   0.50000000  0.56055942  0.40297353
   0.00000000  0.63361761  0.36177400
   0.50000000  0.63496158  0.38986242
   0.00000000  0.36554563  0.51401807
   0.50000000  0.36554563  0.48598193
   0.00000000  0.43980853  0.44441710
   0.50000000  0.43999567  0.47268680
   0.00000000  0.56010047  0.51414175
   0.50000000  0.56010047  0.48585825
   0.00000000  0.63424075  0.44455375
   0.50000000  0.63453329  0.47257506
   0.00000000  0.36601491  0.59689717
   0.50000000  0.36522323  0.56886838
   0.00000000  0.43999567  0.52731320
   0.50000000  0.43980853  0.55558290
   0.00000000  0.56055942  0.59702647
   0.50000000  0.55981811  0.56874698
   0.00000000  0.63453329  0.52742494
   0.50000000  0.63424075  0.55544625
   0.00000000  0.36711316  0.67999565
   0.50000000  0.36516626  0.65195825
   0.00000000  0.44035452  0.61006345
   0.50000000  0.43951248  0.63834560
   0.00000000  0.56110455  0.68016416
   0.50000000  0.55947776  0.65186484
   0.00000000  0.63496158  0.61013758
   0.50000000  0.63361761  0.63822600
   0.00000000  0.36675317  0.76206296
   0.50000000  0.36446437  0.73452024
   0.00000000  0.44238851  0.69373535
   0.50000000  0.43779747  0.72219462
   0.00000000  0.55846157  0.76153666
   0.50000000  0.55754958  0.73371125
   0.00000000  0.63673266  0.69370929
   0.50000000  0.63104000  0.72188237
   0.00000000  0.43968814  0.77633769
   0.50000000  0.44641385  0.80235568
   0.00000000  0.63095476  0.77701736
   0.50000000  0.63890883  0.80308726
Generic Input                           
           1
     3.323722    0.000000    0.000000
     0.000000   28.291769    0.000000
     0.000000    0.000000   52.633763
   P 
  60
Direct configuration=     9
   0.00000000  0.36467848  0.26547260
   0.50000000  0.36626189  0.23781748
   0.00000000  0.44550307  0.19744738
   0.50000000  0.44104035  0.22347361
   0.00000000  0.55722282  0.26611068
   0.50000000  0.55770938  0.23809613
   0.00000000  0.63755057  0.19700526
   0.50000000  0.63228269  0.22293836
   0.00000000  0.36513720  0.34813713
   0.50000000  0.36644820  0.32009708
   0.00000000  0.43957256  0.27805828
   0.50000000  0.44287643  0.30656043
   0.00000000  0.55850115  0.34827467
   0.50000000  0.55951812  0.31990051
   0.00000000  0.63208652  0.27835662
   0.50000000  0.63626598  0.30650148
   0.00000000  0.36517221  0.43113506
   0.50000000  0.36573930  0.40312815
   0.00000000  0.44083831  0.36161430
   0.50000000  0.44139675  0.38994420
   0.00000000  0.55870974  0.43129493
   0.50000000  0.55922703  0.40296055
   0.00000000  0.63400400  0.36177145
   0.50000000  0.63495087  0.38982316
   0.00000000  0.36540064  0.51400334
   0.50000000  0.36540064  0.48599666
   0.00000000  0.44103876  0.44439899
   0.50000000  0.44116082  0.47272191
   0.00000000  0.55890489  0.51416522
   0.50000000  0.55890489  0.48583478
   0.00000000  0.63445070  0.44456815
   0.50000000  0.63465142  0.47256985
   0.00000000  0.36573930  0.59687185
   0.50000000  0.36517221  0.56886494
   0.00000000  0.44116082  0.52727809
   0.50000000  0.44103876  0.55560101
   0.00000000  0.55922703  0.59703945
   0.50000000  0.55870974  0.56870507
   0.00000000  0.63465142  0.52743015
   0.50000000  0.63445070  0.55543185
   0.00000000  0.36644820  0.67990292
   0.50000000  0.36513720  0.65186287
   0.00000000  0.44139675  0.61005580
   0.50000000  0.44083831  0.63838570
   0.00000000  0.55951812  0.68009949
   0.50000000  0.55850115  0.65172533
   0.00000000  0.63495087  0.61017684
   0.50000000  0.63400400  0.63822855
   0.00000000  0.36626189  0.76218252
   0.50000000  0.36467848  0.73452740
   0.00000000  0.44287643  0.69343957
   0.50000000  0.43957256  0.72194172
   0.00000000  0.55770938  0.76190387
   0.50000000  0.55722282  0.73388932
   0.00000000  0.63626598  0.69349852
   0.50000000  0.63208652  0.72164338
   0.00000000  0.44104035  0.77652639
   0.50000000  0.44550307  0.80255262
   0.00000000  0.63228269  0.77706164
   0.50000000  0.63755057  0.80299474
Generic Input                           
           1
     3.325812    0.000000    0.000000
     0.000000   28.504248    0.000000
     0.000000    0.000000   52.628185
   P 
  60
Direct configuration=    10
   0.00000000  0.36435941  0.26549389
   0.50000000  0.36610226  0.23776765
   0.00000000  0.44589515  0.19757674
   0.50000000  0.44073061  0.22352295
   0.00000000  0.55709388  0.26615264
   0.50000000  0.55770438  0.23818846
   0.00000000  0.63804895  0.19710407
   0.50000000  0.63198451  0.22286232
   0.00000000  0.36514804  0.34804757
   0.50000000  0.36673204  0.32008919
   0.00000000  0.43922252  0.27807942
   0.50000000  0.44260382  0.30633419
   0.00000000  0.55881837  0.34814317
   0.50000000  0.56023454  0.31996365
   0.00000000  0.63209288  0.27833725
   0.50000000  0.63630658  0.30632829
   0.00000000  0.36514064  0.43109484
   0.50000000  0.36576149  0.40315382
   0.00000000  0.44036643  0.36170280
   0.50000000  0.44107657  0.38986319
   0.00000000  0.55906733  0.43120377
   0.50000000  0.55966653  0.40304435
   0.00000000  0.63394677  0.36180696
   0.50000000  0.63501169  0.38977638
   0.00000000  0.36539492  0.51397129
   0.50000000  0.36539492  0.48602871
   0.00000000  0.44060820  0.44448025
   0.50000000  0.44077008  0.47263579
   0.00000000  0.55930380  0.51408015
   0.50000000  0.55930380  0.48591985
   0.00000000  0.63443848  0.44459944
   0.50000000  0.63466997  0.47253537
   0.00000000  0.36576149  0.59684618
   0.50000000  0.36514064  0.56890516
   0.00000000  0.44077008  0.52736421
   0.50000000  0.44060820  0.55551975
   0.00000000  0.55966653  0.59695565
   0.50000000  0.55906733  0.56879623
   0.00000000  0.63466997  0.52746463
   0.50000000  0.63443848  0.55540056
   0.00000000  0.36673204  0.67991081
   0.50000000  0.36514804  0.65195243
   0.00000000  0.44107657  0.61013681
   0.50000000  0.44036643  0.63829720
   0.00000000  0.56023454  0.68003635
   0.50000000  0.55881837  0.65185683
   0.00000000  0.63501169  0.61022362
   0.50000000  0.63394677  0.63819304
   0.00000000  0.36610226  0.76223235
   0.50000000  0.36435941  0.73450611
   0.00000000  0.44260382  0.69366581
   0.50000000  0.43922252  0.72192058
   0.00000000  0.55770438  0.76181154
   0.50000000  0.55709388  0.73384736
   0.00000000  0.63630658  0.69367171
   0.50000000  0.63209288  0.72166275
   0.00000000  0.44073061  0.77647705
   0.50000000  0.44589515  0.80242326
   0.00000000  0.63198451  0.77713768
   0.50000000  0.63804895  0.80289593
Generic Input                           
           1
     3.327714    0.000000    0.000000
     0.000000   28.697534    0.000000
     0.000000    0.000000   52.623111
   P 
  60
Direct configuration=    11
   0.00000000  0.36407133  0.26551326
   0.50000000  0.36595813  0.23772231
   0.00000000  0.44624916  0.19769441
   0.50000000  0.44045094  0.22356784
   0.00000000  0.55697746  0.26619082
   0.50000000  0.55769987  0.23827247
   0.00000000  0.63849893  0.19719398
   0.50000000  0.63171529  0.22279315
   0.00000000  0.36515782  0.34796609
   0.50000000  0.36698832  0.32008201
   0.00000000  0.43890647  0.27809865
   0.50000000  0.44235768  0.30612837
   0.00000000  0.55910479  0.34802353
   0.50000000  0.56088140  0.32002110
   0.00000000  0.63209863  0.27831964
   0.50000000  0.63634325  0.30617072
   0.00000000  0.36511214  0.43105824
   0.50000000  0.36578153  0.40317717
   0.00000000  0.43994037  0.36178331
   0.50000000  0.44078749  0.38978949
   0.00000000  0.55939018  0.43112084
   0.50000000  0.56006335  0.40312058
   0.00000000  0.63389510  0.36183927
   0.50000000  0.63506659  0.38973382
   0.00000000  0.36538976  0.51394213
   0.50000000  0.36538976  0.48605787
   0.00000000  0.44021945  0.44455418
   0.50000000  0.44041728  0.47255744
   0.00000000  0.55966397  0.51400275
   0.50000000  0.55966397  0.48599725
   0.00000000  0.63442745  0.44462792
   0.50000000  0.63468671  0.47250400
   0.00000000  0.36578153  0.59682283
   0.50000000  0.36511214  0.56894176
   0.00000000  0.44041728  0.52744256
   0.50000000  0.44021945  0.55544582
   0.00000000  0.56006335  0.59687942
   0.50000000  0.55939018  0.56887916
   0.00000000  0.63468671  0.52749600
   0.50000000  0.63442745  0.55537208
   0.00000000  0.36698832  0.67991799
   0.50000000  0.36515782  0.65203391
   0.00000000  0.44078749  0.61021051
   0.50000000  0.43994037  0.63821669
   0.00000000  0.56088140  0.67997890
   0.50000000  0.55910479  0.65197647
   0.00000000  0.63506659  0.61026618
   0.50000000  0.63389510  0.63816073
   0.00000000  0.36595813  0.76227769
   0.50000000  0.36407133  0.73448674
   0.00000000  0.44235768  0.69387163
   0.50000000  0.43890647  0.72190135
   0.00000000  0.55769987  0.76172753
   0.50000000  0.55697746  0.73380918
   0.00000000  0.63634325  0.69382928
   0.50000000  0.63209863  0.72168036
   0.00000000  0.44045094  0.77643216
   0.50000000  0.44624916  0.80230559
   0.00000000  0.63171529  0.77720685
   0.50000000  0.63849893  0.80280602
Generic Input                           
           1
     3.329893    0.000000    0.000000
     0.000000   28.736226    0.000000
     0.000000    0.000000   52.723388
   P 
  60
Direct configuration=    12
   0.00000000  0.36400223  0.26548542
   0.50000000  0.36566502  0.23764277
   0.00000000  0.44645897  0.19781029
   0.50000000  0.44038386  0.22361407
   0.00000000  0.55701782  0.26622150
   0.50000000  0.55752349  0.23819540
   0.00000000  0.63866237  0.19731539
   0.50000000  0.63163560  0.22278628
   0.00000000  0.36529810  0.34792111
   0.50000000  0.36714229  0.32005178
   0.00000000  0.43881084  0.27803858
   0.50000000  0.44220260  0.30609512
   0.00000000  0.55932720  0.34801979
   0.50000000  0.56119058  0.32000288
   0.00000000  0.63212467  0.27826018
   0.50000000  0.63625314  0.30611238
   0.00000000  0.36515543  0.43104624
   0.50000000  0.36584300  0.40317935
   0.00000000  0.43976728  0.36177399
   0.50000000  0.44062723  0.38979831
   0.00000000  0.55954716  0.43113528
   0.50000000  0.56025020  0.40310604
   0.00000000  0.63385061  0.36183386
   0.50000000  0.63501077  0.38970677
   0.00000000  0.36544573  0.51393624
   0.50000000  0.36544573  0.48606376
   0.00000000  0.44002466  0.44453984
   0.50000000  0.44023844  0.47257190
   0.00000000  0.55984290  0.51401687
   0.50000000  0.55984290  0.48598313
   0.00000000  0.63436722  0.44463157
   0.50000000  0.63463140  0.47249860
   0.00000000  0.36584300  0.59682065
   0.50000000  0.36515543  0.56895376
   0.00000000  0.44023844  0.52742810
   0.50000000  0.44002466  0.55546016
   0.00000000  0.56025020  0.59689396
   0.50000000  0.55954716  0.56886472
   0.00000000  0.63463140  0.52750140
   0.50000000  0.63436722  0.55536843
   0.00000000  0.36714229  0.67994822
   0.50000000  0.36529810  0.65207889
   0.00000000  0.44062723  0.61020169
   0.50000000  0.43976728  0.63822601
   0.00000000  0.56119058  0.67999712
   0.50000000  0.55932720  0.65198021
   0.00000000  0.63501077  0.61029323
   0.50000000  0.63385061  0.63816614
   0.00000000  0.36566502  0.76235723
   0.50000000  0.36400223  0.73451458
   0.00000000  0.44220260  0.69390488
   0.50000000  0.43881084  0.72196142
   0.00000000  0.55752349  0.76180460
   0.50000000  0.55701782  0.73377850
   0.00000000  0.63625314  0.69388762
   0.50000000  0.63212467  0.72173982
   0.00000000  0.44038386  0.77638593
   0.50000000  0.44645897  0.80218971
   0.00000000  0.63163560  0.77721372
   0.50000000  0.63866237  0.80268461
Generic Input                           
           1
     3.332900    0.000000    0.000000
     0.000000   28.789617    0.000000