  12  12   1   0
  0.3973299E+02  0.3342886E-09  0.3260241E-08  0.4374831E-09  0.5000000E-15
  1.000000000000000E-004
  CAR 
 Generic Input                           
      5.52889976    -15.92997188 2000      1.01430392      1.00000000
    -15.930  0.0000E+00  0.0000E+00
    -15.919  0.0000E+00  0.0000E+00
    -15.909  0.0000E+00  0.0000E+00
    -15.898  0.0000E+00  0.0000E+00
    -15.887  0.0000E+00  0.0000E+00
    -15.876  0.0000E+00  0.0000E+00
    -15.866  0.0000E+00  0.0000E+00
    -15.855  0.0000E+00  0.0000E+00
    -15.844  0.0000E+00  0.0000E+00
    -15.833  0.0000E+00  0.0000E+00
    -15.823  0.0000E+00  0.0000E+00
    -15.812  0.0000E+00  0.0000E+00
    -15.801  0.0000E+00  0.0000E+00
    -15.790  0.0000E+00  0.0000E+00
    -15.780  0.0000E+00  0.0000E+00
    -15.769  0.0000E+00  0.0000E+00
    -15.758  0.0000E+00  0.0000E+00
    -15.747  0.0000E+00  0.0000E+00
    -15.737  0.0000E+00  0.0000E+00
    -15.726  0.0000E+00  0.0000E+00
    -15.715  0.0000E+00  0.0000E+00
    -15.705  0.0000E+00  0.0000E+00
    -15.694  0.0000E+00  0.0000E+00
    -15.683  0.0000E+00  0.0000E+00
    -15.672  0.0000E+00  0.0000E+00
    -15.662  0.0000E+00  0.0000E+00
    -15.651  0.0000E+00  0.0000E+00
    -15.640  0.0000E+00  0.0000E+00
    -15.629  0.0000E+00  0.0000E+00
    -15.619  0.0000E+00  0.0000E+00
    -15.608  0.0000E+00  0.0000E+00
    -15.597  0.0000E+00  0.0000E+00
    -15.586  0.0000E+00  0.0000E+00
    -15.576  0.0000E+00  0.0000E+00
    -15.565  0.0000E+00  0.0000E+00
    -15.554  0.0000E+00  0.0000E+00
    -15.544  0.0000E+00  0.0000E+00
    -15.533  0.0000E+00  0.0000E+00
    -15.522  0.0000E+00  0.0000E+00
    -15.511  0.0000E+00  0.0000E+00
    -15.501  0.0000E+00  0.0000E+00
    -15.490  0.0000E+00  0.0000E+00
    -15.479  0.0000E+00  0.0000E+00
    -15.468  0.0000E+00  0.0000E+00
    -15.458  0.0000E+00  0.0000E+00
    -15.447  0.0000E+00  0.0000E+00
    -15.436  0.0000E+00  0.0000E+00
    -15.425  0.0000E+00  0.0000E+00
    -15.415  0.0000E+00  0.0000E+00
    -15.404  0.0000E+00  0.0000E+00
    -15.393  0.0000E+00  0.0000E+00
    -15.382  0.0000E+00  0.0000E+00
    -15.372  0.0000E+00  0.0000E+00
    -15.361  0.0000E+00  0.0000E+00
    -15.350  0.0000E+00  0.0000E+00
    -15.340  0.0000E+00  0.0000E+00
    -15.329  0.0000E+00  0.0000E+00
    -15.318  0.0000E+00  0.0000E+00
    -15.307  0.0000E+00  0.0000E+00
    -15.297  0.0000E+00  0.0000E+00
    -15.286  0.0000E+00  0.0000E+00
    -15.275  0.0000E+00  0.0000E+00
    -15.264  0.0000E+00  0.0000E+00
    -15.254  0.0000E+00  0.0000E+00
    -15.243  0.0000E+00  0.0000E+00
    -15.232  0.0000E+00  0.0000E+00
    -15.221  0.0000E+00  0.0000E+00
    -15.211  0.0000E+00  0.0000E+00
    -15.200  0.0000E+00  0.0000E+00
    -15.189  0.0000E+00  0.0000E+00
    -15.179  0.0000E+00  0.0000E+00
    -15.168  0.0000E+00  0.0000E+00
    -15.157  0.0000E+00  0.0000E+00
    -15.146  0.0000E+00  0.0000E+00
    -15.136  0.0000E+00  0.0000E+00
    -15.125  0.0000E+00  0.0000E+00
    -15.114  0.0000E+00  0.0000E+00
    -15.103  0.0000E+00  0.0000E+00
    -15.093  0.0000E+00  0.0000E+00
    -15.082  0.0000E+00  0.0000E+00
    -15.071  0.0000E+00  0.0000E+00
    -15.060  0.0000E+00  0.0000E+00
    -15.050  0.0000E+00  0.0000E+00
    -15.039  0.0000E+00  0.0000E+00
    -15.028  0.0000E+00  0.0000E+00
    -15.018  0.0000E+00  0.0000E+00
    -15.007  0.3415E-12  0.3666E-14
    -14.996  0.9931E-08  0.1066E-09
    -14.985  0.3055E-04  0.3280E-06
    -14.975  0.1032E-01  0.1111E-03
    -14.964  0.4107E+00  0.4520E-02
    -14.953  0.2161E+01  0.2771E-01
    -14.942  0.1667E+01  0.4561E-01
    -14.932  0.1848E+00  0.4759E-01
    -14.921  0.2617E-02  0.4762E-01
    -14.910  0.4263E-05  0.4762E-01
    -14.899  0.7532E-09  0.4762E-01
    -14.889  0.1379E-13  0.4762E-01
    -14.878  0.0000E+00  0.4762E-01
    -14.867  0.0000E+00  0.4762E-01
    -14.856  0.4925E-15  0.4762E-01
    -14.846  0.3726E-10  0.4762E-01
    -14.835  0.4772E-06  0.4762E-01
    -14.824  0.6537E-03  0.4763E-01
    -14.814  0.1004E+00  0.4870E-01
    -14.803  0.1886E+01  0.6894E-01
    -14.792  0.4900E+01  0.1215E+00
    -14.781  0.2020E+01  0.1432E+00
    -14.771  0.1569E+01  0.1601E+00
    -14.760  0.2290E+01  0.1847E+00
    -14.749  0.5257E+00  0.1903E+00
    -14.738  0.2866E-01  0.1906E+00
    -14.728  0.6665E+00  0.1978E+00
    -14.717  0.4996E+01  0.2514E+00
    -14.706  0.6211E+01  0.3181E+00
    -14.695  0.1372E+01  0.3328E+00
    -14.685  0.5006E-01  0.3333E+00
    -14.674  0.2567E-03  0.3333E+00
    -14.663  0.1588E-06  0.3333E+00
    -14.653  0.1607E-06  0.3333E+00
    -14.642  0.2928E-03  0.3333E+00
    -14.631  0.5931E-01  0.3340E+00
    -14.620  0.1449E+01  0.3495E+00
    -14.610  0.4823E+01  0.4013E+00
    -14.599  0.2374E+01  0.4268E+00
    -14.588  0.1661E+00  0.4286E+00
    -14.577  0.3015E+00  0.4318E+00
    -14.567  0.5611E+01  0.4920E+00
    -14.556  0.1466E+02  0.6494E+00
    -14.545  0.5933E+01  0.7131E+00
    -14.534  0.2929E+01  0.7445E+00
    -14.524  0.4739E+01  0.7954E+00
    -14.513  0.1268E+01  0.8090E+00
    -14.502  0.4654E-01  0.8095E+00
    -14.492  0.1036E+00  0.8106E+00
    -14.481  0.1913E+01  0.8312E+00
    -14.470  0.4899E+01  0.8838E+00
    -14.459  0.1858E+01  0.9037E+00
    -14.449  0.9742E-01  0.9048E+00
    -14.438  0.6242E-03  0.9048E+00
    -14.427  0.4482E-06  0.9048E+00
    -14.416  0.5437E-06  0.9048E+00
    -14.406  0.8639E-03  0.9048E+00
    -14.395  0.1533E+00  0.9064E+00
    -14.384  0.3301E+01  0.9419E+00
    -14.373  0.9757E+01  0.1047E+01
    -14.363  0.4294E+01  0.1093E+01
    -14.352  0.1169E+01  0.1105E+01
    -14.341  0.4643E+01  0.1155E+01
    -14.330  0.7041E+01  0.1231E+01
    -14.320  0.1012E+02  0.1339E+01
    -14.309  0.3685E+01  0.1379E+01
    -14.298  0.1910E+00  0.1381E+01
    -14.288  0.1210E-02  0.1381E+01
    -14.277  0.8593E-06  0.1381E+01
    -14.266  0.6523E-10  0.1381E+01
    -14.255  0.0000E+00  0.1381E+01
    -14.245  0.0000E+00  0.1381E+01
    -14.234  0.0000E+00  0.1381E+01
    -14.223  0.8175E-13  0.1381E+01
    -14.212  0.3587E-08  0.1381E+01
    -14.202  0.1661E-04  0.1381E+01
    -14.191  0.8369E-02  0.1381E+01
    -14.180  0.4889E+00  0.1386E+01
    -14.169  0.3689E+01  0.1426E+01
    -14.159  0.4030E+01  0.1469E+01
    -14.148  0.6524E+00  0.1476E+01
    -14.137  0.5666E+00  0.1482E+01
    -14.127  0.4175E+01  0.1527E+01
    -14.116  0.8692E+01  0.1620E+01
    -14.105  0.1020E+02  0.1730E+01
    -14.094  0.2866E+01  0.1761E+01
    -14.084  0.1152E+00  0.1762E+01
    -14.073  0.5604E-03  0.1762E+01
    -14.062  0.3031E-06  0.1762E+01
    -14.051  0.7474E-06  0.1762E+01
    -14.041  0.9079E-03  0.1762E+01
    -14.030  0.1241E+00  0.1763E+01
    -14.019  0.2087E+01  0.1786E+01
    -14.008  0.4885E+01  0.1838E+01
    -13.998  0.1694E+01  0.1856E+01
    -13.987  0.8070E-01  0.1857E+01
    -13.976  0.4680E-03  0.1857E+01
    -13.966  0.8356E-03  0.1857E+01
    -13.955  0.1499E+00  0.1859E+01
    -13.944  0.3265E+01  0.1894E+01
    -13.933  0.9750E+01  0.1998E+01
    -13.923  0.4312E+01  0.2045E+01
    -13.912  0.4508E+00  0.2050E+01
    -13.901  0.3625E+01  0.2089E+01
    -13.890  0.9797E+01  0.2194E+01
    -13.880  0.4278E+01  0.2240E+01
    -13.869  0.5148E+01  0.2295E+01
    -13.858  0.9590E+01  0.2398E+01
    -13.847  0.2804E+01  0.2428E+01
    -13.837  0.1401E+01  0.2443E+01
    -13.826  0.4753E+01  0.2494E+01
    -13.815  0.2579E+01  0.2522E+01
    -13.804  0.1976E+00  0.2524E+01
    -13.794  0.3647E-01  0.2524E+01
    -13.783  0.1091E+01  0.2536E+01
    -13.772  0.4613E+01  0.2585E+01
    -13.762  0.2876E+01  0.2616E+01
    -13.751  0.2549E+00  0.2619E+01
    -13.740  0.2846E-02  0.2619E+01
    -13.729  0.3626E-05  0.2619E+01
    -13.719  0.3102E-05  0.2619E+01
    -13.708  0.3087E-02  0.2619E+01
    -13.697  0.3479E+00  0.2623E+01
    -13.686  0.4876E+01  0.2675E+01
    -13.676  0.9671E+01  0.2779E+01
    -13.665  0.4315E+01  0.2825E+01
    -13.654  0.4965E+01  0.2879E+01
    -13.643  0.2930E+01  0.2910E+01
    -13.633  0.6447E+01  0.2979E+01
    -13.622  0.8903E+01  0.3075E+01
    -13.611  0.1850E+01  0.3095E+01
    -13.601  0.5111E-01  0.3095E+01
    -13.590  0.1674E-03  0.3095E+01
    -13.579  0.4247E-03  0.3095E+01
    -13.568  0.7578E-01  0.3096E+01
    -13.558  0.1641E+01  0.3114E+01
    -13.547  0.4877E+01  0.3166E+01
    -13.536  0.2145E+01  0.3189E+01
    -13.525  0.1316E+00  0.3190E+01
    -13.515  0.9953E-03  0.3190E+01
    -13.504  0.8477E-06  0.3190E+01
    -13.493  0.7741E-10  0.3190E+01
    -13.482  0.2579E-09  0.3190E+01
    -13.472  0.2826E-05  0.3190E+01
    -13.461  0.3408E-02  0.3191E+01
    -13.450  0.4798E+00  0.3196E+01
    -13.439  0.8747E+01  0.3290E+01
    -13.429  0.2377E+02  0.3545E+01
    -13.418  0.1059E+02  0.3658E+01
    -13.407  0.7588E+00  0.3667E+01
    -13.397  0.7981E-02  0.3667E+01
    -13.386  0.1103E-04  0.3667E+01
    -13.375  0.1827E-08  0.3667E+01
    -13.364  0.3204E-06  0.3667E+01
    -13.354  0.5841E-03  0.3667E+01
    -13.343  0.1184E+00  0.3668E+01
    -13.332  0.2896E+01  0.3699E+01
    -13.321  0.9645E+01  0.3803E+01
    -13.311  0.4752E+01  0.3854E+01
    -13.300  0.3286E+00  0.3857E+01
    -13.289  0.3615E-02  0.3857E+01
    -13.278  0.1450E+00  0.3859E+01
    -13.268  0.3211E+01  0.3893E+01
    -13.257  0.9738E+01  0.3998E+01
    -13.246  0.4374E+01  0.4045E+01
    -13.236  0.4692E+00  0.4050E+01
    -13.225  0.3776E+01  0.4090E+01
    -13.214  0.1177E+02  0.4217E+01
    -13.203  0.1286E+02  0.4355E+01
    -13.193  0.6295E+01  0.4422E+01
    -13.182  0.5872E+00  0.4428E+01
    -13.171  0.7137E-02  0.4429E+01
    -13.160  0.9948E-05  0.4429E+01
    -13.150  0.1499E-08  0.4429E+01
    -13.139  0.2364E-13  0.4429E+01
    -13.128  0.0000E+00  0.4429E+01
    -13.117  0.0000E+00  0.4429E+01
    -13.107  0.0000E+00  0.4429E+01
    -13.096  0.0000E+00  0.4429E+01
    -13.085  0.0000E+00  0.4429E+01
    -13.075  0.0000E+00  0.4429E+01
    -13.064  0.0000E+00  0.4429E+01
    -13.053  0.0000E+00  0.4429E+01
    -13.042  0.0000E+00  0.4429E+01
    -13.032  0.0000E+00  0.4429E+01
    -13.021  0.0000E+00  0.4429E+01
    -13.010  0.0000E+00  0.4429E+01
    -12.999  0.4432E-14  0.4429E+01
    -12.989  0.3454E-09  0.4429E+01
    -12.978  0.2727E-05  0.4429E+01
    -12.967  0.2320E-02  0.4429E+01
    -12.956  0.2245E+00  0.4431E+01
    -12.946  0.2726E+01  0.4460E+01
    -12.935  0.4688E+01  0.4511E+01
    -12.924  0.1190E+01  0.4523E+01
    -12.913  0.4072E-01  0.4524E+01
    -12.903  0.1060E-01  0.4524E+01
    -12.892  0.5562E+00  0.4530E+01
    -12.881  0.3852E+01  0.4571E+01
    -12.871  0.3876E+01  0.4613E+01
    -12.860  0.5669E+00  0.4619E+01
    -12.849  0.1078E-01  0.4619E+01
    -12.838  0.2386E-04  0.4619E+01
    -12.828  0.4275E-06  0.4619E+01
    -12.817  0.7200E-03  0.4619E+01
    -12.806  0.1394E+00  0.4621E+01
    -12.795  0.3505E+01  0.4658E+01
    -12.785  0.1487E+02  0.4818E+01
    -12.774  0.1400E+02  0.4968E+01
    -12.763  0.4273E+01  0.5014E+01
    -12.752  0.8328E+01  0.5103E+01
    -12.742  0.7193E+01  0.5181E+01
    -12.731  0.1294E+01  0.5195E+01
    -12.720  0.5130E+01  0.5250E+01
    -12.710  0.1002E+02  0.5357E+01
    -12.699  0.6334E+01  0.5425E+01
    -12.688  0.4620E+01  0.5475E+01
    -12.677  0.6365E+01  0.5543E+01
    -12.667  0.9267E+01  0.5643E+01
    -12.656  0.2905E+01  0.5674E+01
    -12.645  0.4221E+01  0.5719E+01
    -12.634  0.3551E+01  0.5757E+01
    -12.624  0.4385E+00  0.5762E+01
    -12.613  0.6962E-02  0.5762E+01
    -12.602  0.2379E-03  0.5762E+01
    -12.591  0.6295E-01  0.5763E+01
    -12.581  0.2189E+01  0.5786E+01
    -12.570  0.1374E+02  0.5934E+01
    -12.559  0.3245E+02  0.6282E+01
    -12.549  0.2687E+02  0.6570E+01
    -12.538  0.4682E+01  0.6621E+01
    -12.527  0.4314E+01  0.6667E+01
    -12.516  0.9767E+01  0.6772E+01
    -12.506  0.3360E+01  0.6808E+01
    -12.495  0.2531E+00  0.6811E+01
    -12.484  0.1265E+01  0.6824E+01
    -12.473  0.2386E+01  0.6850E+01
    -12.463  0.6655E+00  0.6857E+01
    -12.452  0.2516E-01  0.6857E+01
    -12.441  0.1143E-03  0.6857E+01
    -12.430  0.7749E-04  0.6857E+01
    -12.420  0.3016E-01  0.6857E+01
    -12.409  0.1376E+01  0.6872E+01
    -12.398  0.8228E+01  0.6961E+01
    -12.387  0.7187E+01  0.7038E+01
    -12.377  0.9073E+00  0.7047E+01
    -12.366  0.1475E-01  0.7048E+01
    -12.355  0.6106E-04  0.7048E+01
    -12.345  0.1678E-01  0.7048E+01
    -12.334  0.9792E+00  0.7058E+01
    -12.323  0.7400E+01  0.7138E+01
    -12.312  0.8832E+01  0.7233E+01
    -12.302  0.5536E+01  0.7292E+01
    -12.291  0.3450E+01  0.7329E+01
    -12.280  0.3967E+00  0.7333E+01
    -12.269  0.5889E-02  0.7333E+01
    -12.259  0.2717E-02  0.7333E+01
    -12.248  0.2566E+00  0.7336E+01
    -12.237  0.3570E+01  0.7374E+01
    -12.226  0.1135E+02  0.7496E+01
    -12.216  0.1118E+02  0.7616E+01
    -12.205  0.6503E+01  0.7686E+01
    -12.194  0.3225E+01  0.7721E+01
    -12.184  0.6930E+01  0.7795E+01
    -12.173  0.9366E+01  0.7896E+01
    -12.162  0.4037E+01  0.7939E+01
    -12.151  0.1179E+01  0.7952E+01
    -12.141  0.7498E-01  0.7952E+01
    -12.130  0.6092E-03  0.7952E+01
    -12.119  0.3128E-05  0.7952E+01
    -12.108  0.2693E-02  0.7952E+01
    -12.098  0.3191E+00  0.7956E+01
    -12.087  0.4710E+01  0.8006E+01
    -12.076  0.1078E+02  0.8122E+01
    -12.065  0.1065E+02  0.8236E+01
    -12.055  0.7872E+01  0.8321E+01
    -12.044  0.1133E+01  0.8333E+01
    -12.033  0.2406E-01  0.8333E+01
    -12.023  0.1815E+00  0.8335E+01
    -12.012  0.1655E+01  0.8353E+01
    -12.001  0.2170E+01  0.8376E+01
    -11.990  0.6239E+00  0.8383E+01
    -11.980  0.3838E+01  0.8424E+01
    -11.969  0.9797E+01  0.8529E+01
    -11.958  0.3719E+01  0.8569E+01
    -11.947  0.7010E+00  0.8577E+01
    -11.937  0.8841E+01  0.8672E+01
    -11.926  0.2828E+02  0.8975E+01
    -11.915  0.2057E+02  0.9196E+01
    -11.904  0.3755E+01  0.9236E+01
    -11.894  0.1489E+00  0.9238E+01
    -11.883  0.9317E-03  0.9238E+01
    -11.872  0.7226E-06  0.9238E+01
    -11.861  0.6196E-10  0.9238E+01
    -11.851  0.0000E+00  0.9238E+01
    -11.840  0.1970E-14  0.9238E+01
    -11.829  0.2129E-09  0.9238E+01
    -11.819  0.2176E-05  0.9238E+01
    -11.808  0.2387E-02  0.9238E+01
    -11.797  0.2956E+00  0.9241E+01
    -11.786  0.4534E+01  0.9290E+01
    -11.776  0.1011E+02  0.9398E+01
    -11.765  0.6516E+01  0.9468E+01
    -11.754  0.4376E+01  0.9515E+01
    -11.743  0.7672E+00  0.9524E+01
    -11.733  0.1906E-01  0.9524E+01
    -11.722  0.1466E+00  0.9525E+01
    -11.711  0.3228E+01  0.9560E+01
    -11.700  0.9742E+01  0.9665E+01
    -11.690  0.4353E+01  0.9711E+01
    -11.679  0.2715E+00  0.9714E+01
    -11.668  0.2089E-02  0.9714E+01
    -11.658  0.2226E-03  0.9714E+01
    -11.647  0.6175E-01  0.9715E+01
    -11.636  0.2052E+01  0.9737E+01
    -11.625  0.9111E+01  0.9835E+01
    -11.615  0.5958E+01  0.9899E+01
    -11.604  0.5554E+00  0.9905E+01
    -11.593  0.6541E-02  0.9905E+01
    -11.582  0.8845E-05  0.9905E+01
    -11.572  0.1197E-03  0.9905E+01
    -11.561  0.4069E-01  0.9905E+01
    -11.550  0.1630E+01  0.9923E+01
    -11.539  0.8625E+01  0.1002E+02
    -11.529  0.6692E+01  0.1009E+02
    -11.518  0.8250E+00  0.1010E+02
    -11.507  0.1683E+01  0.1011E+02
    -11.496  0.4882E+01  0.1017E+02
    -11.486  0.2110E+01  0.1019E+02
    -11.475  0.1271E+00  0.1019E+02
    -11.464  0.9425E-03  0.1019E+02
    -11.454  0.9731E-06  0.1019E+02
    -11.443  0.4301E-03  0.1019E+02
    -11.432  0.1101E+00  0.1019E+02
    -11.421  0.3371E+01  0.1023E+02
    -11.411  0.1391E+02  0.1038E+02
    -11.400  0.9073E+01  0.1047E+02
    -11.389  0.7556E+01  0.1056E+02
    -11.378  0.1578E+02  0.1073E+02
    -11.368  0.1090E+02  0.1084E+02
    -11.357  0.6306E+01  0.1091E+02
    -11.346  0.9719E+01  0.1101E+02
    -11.335  0.3124E+01  0.1105E+02
    -11.325  0.3216E+01  0.1108E+02
    -11.314  0.9709E+01  0.1119E+02
    -11.303  0.4515E+01  0.1123E+02
    -11.293  0.2937E+00  0.1124E+02
    -11.282  0.2364E-02  0.1124E+02
    -11.271  0.1051E-03  0.1124E+02
    -11.260  0.3751E-01  0.1124E+02
    -11.250  0.1668E+01  0.1126E+02
    -11.239  0.1066E+02  0.1137E+02
    -11.228  0.1175E+02  0.1150E+02
    -11.217  0.2712E+01  0.1153E+02
    -11.207  0.4643E+01  0.1158E+02
    -11.196  0.1098E+02  0.1169E+02
    -11.185  0.1111E+02  0.1181E+02
    -11.174  0.7539E+01  0.1189E+02
    -11.164  0.9926E+00  0.1190E+02
    -11.153  0.1721E-01  0.1190E+02
    -11.142  0.3475E-04  0.1190E+02
    -11.132  0.7661E-08  0.1190E+02
    -11.121  0.1773E-12  0.1190E+02
    -11.110  0.0000E+00  0.1190E+02
    -11.099  0.0000E+00  0.1190E+02
    -11.089  0.0000E+00  0.1190E+02
    -11.078  0.1308E-10  0.1190E+02
    -11.067  0.2088E-06  0.1190E+02
    -11.056  0.3554E-03  0.1190E+02
    -11.046  0.6741E-01  0.1191E+02
    -11.035  0.1547E+01  0.1192E+02
    -11.024  0.4855E+01  0.1197E+02
    -11.013  0.2255E+01  0.1200E+02
    -11.003  0.1465E+00  0.1200E+02
    -10.992  0.1177E-02  0.1200E+02
    -10.981  0.1067E-05  0.1200E+02
    -10.970  0.1038E-09  0.1200E+02
    -10.960  0.9850E-15  0.1200E+02
    -10.949  0.0000E+00  0.1200E+02
    -10.938  0.0000E+00  0.1200E+02
    -10.928  0.0000E+00  0.1200E+02
    -10.917  0.0000E+00  0.1200E+02
    -10.906  0.0000E+00  0.1200E+02
    -10.895  0.0000E+00  0.1200E+02
    -10.885  0.0000E+00  0.1200E+02
    -10.874  0.0000E+00  0.1200E+02
    -10.863  0.0000E+00  0.1200E+02
    -10.852  0.0000E+00  0.1200E+02
    -10.842  0.0000E+00  0.1200E+02
    -10.831  0.0000E+00  0.1200E+02
    -10.820  0.0000E+00  0.1200E+02
    -10.809  0.0000E+00  0.1200E+02
    -10.799  0.0000E+00  0.1200E+02
    -10.788  0.0000E+00  0.1200E+02
    -10.777  0.0000E+00  0.1200E+02
    -10.767  0.0000E+00  0.1200E+02
    -10.756  0.0000E+00  0.1200E+02
    -10.745  0.0000E+00  0.1200E+02
    -10.734  0.0000E+00  0.1200E+02
    -10.724  0.0000E+00  0.1200E+02
    -10.713  0.0000E+00  0.1200E+02
    -10.702  0.0000E+00  0.1200E+02
    -10.691  0.0000E+00  0.1200E+02
    -10.681  0.0000E+00  0.1200E+02
    -10.670  0.0000E+00  0.1200E+02
    -10.659  0.0000E+00  0.1200E+02
    -10.648  0.0000E+00  0.1200E+02
    -10.638  0.0000E+00  0.1200E+02
    -10.627  0.0000E+00  0.1200E+02
    -10.616  0.0000E+00  0.1200E+02
    -10.606  0.0000E+00  0.1200E+02
    -10.595  0.0000E+00  0.1200E+02
    -10.584  0.0000E+00  0.1200E+02
    -10.573  0.0000E+00  0.1200E+02
    -10.563  0.0000E+00  0.1200E+02
    -10.552  0.0000E+00  0.1200E+02
    -10.541  0.0000E+00  0.1200E+02
    -10.530  0.0000E+00  0.1200E+02
    -10.520  0.0000E+00  0.1200E+02
    -10.509  0.0000E+00  0.1200E+02
    -10.498  0.0000E+00  0.1200E+02
    -10.487  0.0000E+00  0.1200E+02
    -10.477  0.0000E+00  0.1200E+02
    -10.466  0.0000E+00  0.1200E+02
    -10.455  0.0000E+00  0.1200E+02
    -10.444  0.0000E+00  0.1200E+02
    -10.434  0.0000E+00  0.1200E+02
    -10.423  0.0000E+00  0.1200E+02
    -10.412  0.0000E+00  0.1200E+02
    -10.402  0.0000E+00  0.1200E+02
    -10.391  0.0000E+00  0.1200E+02
    -10.380  0.0000E+00  0.1200E+02
    -10.369  0.0000E+00  0.1200E+02
    -10.359  0.0000E+00  0.1200E+02
    -10.348  0.2086E-10  0.1200E+02
    -10.337  0.3020E-06  0.1200E+02
    -10.326  0.4669E-03  0.1200E+02
    -10.316  0.8063E-01  0.1200E+02
    -10.305  0.1693E+01  0.1202E+02
    -10.294  0.4885E+01  0.1207E+02
    -10.283  0.2088E+01  0.1209E+02
    -10.273  0.1242E+00  0.1210E+02
    -10.262  0.9091E-03  0.1210E+02
    -10.251  0.7489E-06  0.1210E+02
    -10.241  0.2164E-05  0.1210E+02
    -10.230  0.2377E-02  0.1210E+02
    -10.219  0.2948E+00  0.1210E+02
    -10.208  0.4522E+01  0.1215E+02
    -10.198  0.9706E+01  0.1225E+02
    -10.187  0.3083E+01  0.1228E+02
    -10.176  0.1339E+00  0.1229E+02
    -10.165  0.7033E-03  0.1229E+02
    -10.155  0.4117E-06  0.1229E+02
    -10.144  0.2569E-10  0.1229E+02
    -10.133  0.0000E+00  0.1229E+02
    -10.122  0.0000E+00  0.1229E+02
    -10.112  0.0000E+00  0.1229E+02
    -10.101  0.0000E+00  0.1229E+02
    -10.090  0.0000E+00  0.1229E+02
    -10.080  0.0000E+00  0.1229E+02
    -10.069  0.0000E+00  0.1229E+02
    -10.058  0.0000E+00  0.1229E+02
    -10.047  0.0000E+00  0.1229E+02
    -10.037  0.1428E-13  0.1229E+02
    -10.026  0.8673E-09  0.1229E+02
    -10.015  0.5568E-05  0.1229E+02
    -10.004  0.3867E-02  0.1229E+02
     -9.994  0.3077E+00  0.1229E+02
     -9.983  0.3104E+01  0.1232E+02
     -9.972  0.4479E+01  0.1237E+02
     -9.961  0.9501E+00  0.1238E+02
     -9.951  0.2727E-01  0.1238E+02
     -9.940  0.9708E-01  0.1238E+02
     -9.929  0.2615E+01  0.1241E+02
     -9.918  0.9931E+01  0.1252E+02
     -9.908  0.1071E+02  0.1263E+02
     -9.897  0.1310E+02  0.1277E+02
     -9.886  0.6919E+01  0.1285E+02
     -9.876  0.9629E+00  0.1286E+02
     -9.865  0.2336E-01  0.1286E+02
     -9.854  0.7860E-04  0.1286E+02
     -9.843  0.4538E-02  0.1286E+02
     -9.833  0.3391E+00  0.1286E+02
     -9.822  0.3228E+01  0.1290E+02
     -9.811  0.4695E+01  0.1295E+02
     -9.800  0.5417E+01  0.1300E+02
     -9.790  0.9726E+01  0.1311E+02
     -9.779  0.3072E+01  0.1314E+02
     -9.768  0.1329E+00  0.1314E+02
     -9.757  0.6966E-03  0.1314E+02
     -9.747  0.1194E-02  0.1314E+02
     -9.736  0.1478E+00  0.1314E+02
     -9.725  0.2264E+01  0.1317E+02
     -9.715  0.4858E+01  0.1322E+02
     -9.704  0.2052E+01  0.1324E+02
     -9.693  0.6192E+01  0.1331E+02
     -9.682  0.1547E+02  0.1348E+02
     -9.672  0.1679E+02  0.1366E+02
     -9.661  0.5205E+01  0.1371E+02
     -9.650  0.4026E+00  0.1372E+02
     -9.639  0.3270E+01  0.1375E+02
     -9.629  0.9750E+01  0.1386E+02
     -9.618  0.4306E+01  0.1390E+02
     -9.607  0.2653E+00  0.1390E+02
     -9.596  0.2015E-02  0.1390E+02
     -9.586  0.1976E-05  0.1390E+02
     -9.575  0.4884E-03  0.1390E+02
     -9.564  0.1052E+00  0.1391E+02
     -9.553  0.2748E+01  0.1394E+02
     -9.543  0.1077E+02  0.1405E+02
     -9.532  0.1287E+02  0.1419E+02
     -9.521  0.7920E+01  0.1427E+02
     -9.511  0.1052E+01  0.1429E+02
     -9.500  0.1887E-01  0.1429E+02
     -9.489  0.3942E-04  0.1429E+02
     -9.478  0.5748E-07  0.1429E+02
     -9.468  0.1421E-03  0.1429E+02
     -9.457  0.4576E-01  0.1429E+02
     -9.446  0.1740E+01  0.1430E+02
     -9.435  0.8771E+01  0.1440E+02
     -9.425  0.6489E+01  0.1447E+02
     -9.414  0.6887E+00  0.1448E+02
     -9.403  0.9310E-02  0.1448E+02
     -9.392  0.1446E-04  0.1448E+02
     -9.382  0.2432E-08  0.1448E+02
     -9.371  0.4334E-13  0.1448E+02
     -9.360  0.0000E+00  0.1448E+02
     -9.350  0.0000E+00  0.1448E+02
     -9.339  0.0000E+00  0.1448E+02
     -9.328  0.0000E+00  0.1448E+02
     -9.317  0.1765E-10  0.1448E+02
     -9.307  0.3058E-06  0.1448E+02
     -9.296  0.5643E-03  0.1448E+02
     -9.285  0.1161E+00  0.1448E+02
     -9.274  0.2955E+01  0.1451E+02
     -9.264  0.1219E+02  0.1464E+02
     -9.253  0.1428E+02  0.1479E+02
     -9.242  0.5536E+01  0.1485E+02
     -9.231  0.4055E+00  0.1486E+02
     -9.221  0.4763E-02  0.1486E+02
     -9.210  0.1535E+00  0.1486E+02
     -9.199  0.3303E+01  0.1489E+02
     -9.189  0.9757E+01  0.1500E+02
     -9.178  0.4267E+01  0.1504E+02
     -9.167  0.2602E+00  0.1505E+02
     -9.156  0.1961E-01  0.1505E+02
     -9.146  0.7523E+00  0.1506E+02
     -9.135  0.4221E+01  0.1510E+02
     -9.124  0.3465E+01  0.1514E+02
     -9.113  0.4101E+00  0.1514E+02
     -9.103  0.1913E-01  0.1514E+02
     -9.092  0.8383E+00  0.1515E+02
     -9.081  0.6986E+01  0.1523E+02
     -9.070  0.8470E+01  0.1532E+02
     -9.060  0.3725E+01  0.1536E+02
     -9.049  0.9317E+01  0.1546E+02
     -9.038  0.5908E+01  0.1552E+02
     -9.027  0.4759E+01  0.1557E+02
     -9.017  0.9762E+01  0.1568E+02
     -9.006  0.3300E+01  0.1571E+02
     -8.995  0.2098E+00  0.1571E+02
     -8.985  0.2504E+01  0.1574E+02
     -8.974  0.1554E+02  0.1591E+02
     -8.963  0.1512E+02  0.1607E+02
     -8.952  0.3622E+01  0.1611E+02
     -8.942  0.5230E+01  0.1617E+02
     -8.931  0.5971E+01  0.1623E+02
     -8.920  0.4416E+01  0.1628E+02
     -8.909  0.7656E+00  0.1629E+02
     -8.899  0.5476E+00  0.1629E+02
     -8.888  0.5850E+01  0.1635E+02
     -8.877  0.9758E+01  0.1646E+02
     -8.866  0.8226E+01  0.1655E+02
     -8.856  0.1016E+02  0.1666E+02
     -8.845  0.6561E+01  0.1673E+02
     -8.834  0.2996E+01  0.1676E+02
     -8.824  0.3189E+00  0.1676E+02
     -8.813  0.1836E+01  0.1678E+02
     -8.802  0.9077E+01  0.1688E+02
     -8.791  0.8974E+01  0.1698E+02
     -8.781  0.7031E+01  0.1705E+02
     -8.770  0.6733E+01  0.1712E+02
     -8.759  0.6349E+01  0.1719E+02
     -8.748  0.8715E+01  0.1729E+02
     -8.738  0.1489E+02  0.1745E+02
     -8.727  0.1896E+02  0.1765E+02
     -8.716  0.9507E+01  0.1775E+02
     -8.705  0.1397E+01  0.1777E+02
     -8.695  0.3556E+01  0.1780E+02
     -8.684  0.8420E+01  0.1789E+02
     -8.673  0.1580E+02  0.1806E+02
     -8.663  0.1276E+02  0.1820E+02
     -8.652  0.4619E+01  0.1825E+02
     -8.641  0.8343E+01  0.1834E+02
     -8.630  0.7281E+01  0.1842E+02
     -8.620  0.9420E+00  0.1843E+02
     -8.609  0.2253E+00  0.1843E+02
     -8.598  0.4286E+01  0.1848E+02
     -8.587  0.1542E+02  0.1864E+02
     -8.577  0.1304E+02  0.1878E+02
     -8.566  0.2656E+01  0.1881E+02
     -8.555  0.1760E+01  0.1883E+02
     -8.544  0.2148E+01  0.1885E+02
     -8.534  0.4054E+00  0.1886E+02
     -8.523  0.2481E+00  0.1886E+02
     -8.512  0.1828E+01  0.1888E+02
     -8.501  0.2030E+01  0.1890E+02
     -8.491  0.3289E+00  0.1890E+02
     -8.480  0.6971E-02  0.1890E+02
     -8.469  0.1920E-04  0.1890E+02
     -8.459  0.2180E-02  0.1890E+02
     -8.448  0.2790E+00  0.1891E+02
     -8.437  0.4408E+01  0.1896E+02
     -8.426  0.9731E+01  0.1906E+02
     -8.416  0.3180E+01  0.1909E+02
     -8.405  0.1423E+00  0.1910E+02
     -8.394  0.7714E-03  0.1910E+02
     -8.383  0.9865E-06  0.1910E+02
     -8.373  0.6963E-03  0.1910E+02
     -8.362  0.1046E+00  0.1910E+02
     -8.351  0.1923E+01  0.1912E+02
     -8.340  0.4898E+01  0.1917E+02
     -8.330  0.1849E+01  0.1919E+02
     -8.319  0.2909E+00  0.1919E+02
     -8.308  0.4973E+01  0.1925E+02
     -8.298  0.2089E+02  0.1947E+02
     -8.287  0.1609E+02  0.1964E+02
     -8.276  0.2165E+01  0.1967E+02
     -8.265  0.4309E-01  0.1967E+02
     -8.255  0.1076E-03  0.1967E+02
     -8.244  0.7705E-07  0.1967E+02
     -8.233  0.1378E-03  0.1967E+02
     -8.222  0.4481E-01  0.1967E+02
     -8.212  0.1720E+01  0.1969E+02
     -8.201  0.8746E+01  0.1978E+02
     -8.190  0.6681E+01  0.1985E+02
     -8.179  0.3038E+01  0.1988E+02
     -8.169  0.6017E+01  0.1995E+02
     -8.158  0.9322E+01  0.2005E+02
     -8.147  0.7690E+01  0.2013E+02
     -8.137  0.1080E+01  0.2014E+02
     -8.126  0.1980E-01  0.2014E+02
     -8.115  0.4225E-04  0.2014E+02
     -8.104  0.9826E-08  0.2014E+02
     -8.094  0.2403E-12  0.2014E+02
     -8.083  0.4925E-15  0.2014E+02
     -8.072  0.3532E-10  0.2014E+02
     -8.061  0.4576E-06  0.2014E+02
     -8.051  0.6338E-03  0.2014E+02
     -8.040  0.9839E-01  0.2014E+02
     -8.029  0.1867E+01  0.2016E+02
     -8.018  0.4899E+01  0.2022E+02
     -8.008  0.1904E+01  0.2024E+02
     -7.997  0.1024E+00  0.2024E+02
     -7.986  0.6741E-03  0.2024E+02
     -7.975  0.2877E-03  0.2024E+02
     -7.965  0.7372E-01  0.2024E+02
     -7.954  0.2258E+01  0.2026E+02
     -7.943  0.9287E+01  0.2036E+02
     -7.933  0.5634E+01  0.2042E+02
     -7.922  0.4854E+00  0.2043E+02
     -7.911  0.5258E-02  0.2043E+02
     -7.900  0.6491E-05  0.2043E+02
     -7.890  0.8644E-09  0.2043E+02
     -7.879  0.1182E-13  0.2043E+02
     -7.868  0.0000E+00  0.2043E+02
     -7.857  0.0000E+00  0.2043E+02
     -7.847  0.0000E+00  0.2043E+02
     -7.836  0.0000E+00  0.2043E+02
     -7.825  0.0000E+00  0.2043E+02
     -7.814  0.0000E+00  0.2043E+02
     -7.804  0.0000E+00  0.2043E+02
     -7.793  0.2045E-11  0.2043E+02
     -7.782  0.5488E-07  0.2043E+02
     -7.772  0.1560E-03  0.2043E+02
     -7.761  0.4876E-01  0.2043E+02
     -7.750  0.1802E+01  0.2045E+02
     -7.739  0.8847E+01  0.2054E+02
     -7.729  0.6379E+01  0.2061E+02
     -7.718  0.6598E+00  0.2062E+02
     -7.707  0.1360E+00  0.2062E+02
     -7.696  0.2112E+01  0.2064E+02
     -7.686  0.4882E+01  0.2070E+02
     -7.675  0.1671E+01  0.2071E+02
     -7.664  0.7853E-01  0.2071E+02
     -7.653  0.4484E-03  0.2071E+02
     -7.643  0.2860E-06  0.2071E+02
     -7.632  0.7806E-06  0.2071E+02
     -7.621  0.1128E-02  0.2071E+02
     -7.610  0.1824E+00  0.2072E+02
     -7.600  0.3599E+01  0.2075E+02
     -7.589  0.9793E+01  0.2086E+02
     -7.578  0.3947E+01  0.2090E+02
     -7.568  0.2207E+00  0.2090E+02
     -7.557  0.1513E-02  0.2090E+02
     -7.546  0.1165E-05  0.2090E+02
     -7.535  0.9602E-10  0.2090E+02
     -7.525  0.0000E+00  0.2090E+02
     -7.514  0.0000E+00  0.2090E+02
     -7.503  0.0000E+00  0.2090E+02
     -7.492  0.0000E+00  0.2090E+02
     -7.482  0.0000E+00  0.2090E+02
     -7.471  0.5663E-10  0.2090E+02
     -7.460  0.7687E-06  0.2090E+02
     -7.449  0.1115E-02  0.2090E+02
     -7.439  0.1811E+00  0.2091E+02
     -7.428  0.3586E+01  0.2095E+02
     -7.417  0.9792E+01  0.2105E+02
     -7.407  0.3961E+01  0.2109E+02
     -7.396  0.2223E+00  0.2110E+02
     -7.385  0.1530E-02  0.2110E+02
     -7.374  0.1183E-05  0.2110E+02
     -7.364  0.9789E-10  0.2110E+02
     -7.353  0.0000E+00  0.2110E+02
     -7.342  0.4925E-15  0.2110E+02
     -7.331  0.7528E-10  0.2110E+02
     -7.321  0.8294E-06  0.2110E+02
     -7.310  0.9796E-03  0.2110E+02
     -7.299  0.1303E+00  0.2110E+02
     -7.288  0.2156E+01  0.2112E+02
     -7.278  0.5994E+01  0.2118E+02
     -7.267  0.9361E+01  0.2128E+02
     -7.256  0.7821E+01  0.2137E+02
     -7.246  0.1131E+01  0.2138E+02
     -7.235  0.2145E-01  0.2138E+02
     -7.224  0.4155E-03  0.2138E+02
     -7.213  0.8708E-01  0.2138E+02
     -7.203  0.2467E+01  0.2141E+02
     -7.192  0.9433E+01  0.2151E+02
     -7.181  0.5326E+01  0.2157E+02
     -7.170  0.4254E+00  0.2157E+02
     -7.160  0.4253E-02  0.2157E+02
     -7.149  0.4832E-05  0.2157E+02
     -7.138  0.5914E-09  0.2157E+02
     -7.127  0.7880E-14  0.2157E+02
     -7.117  0.0000E+00  0.2157E+02
     -7.106  0.0000E+00  0.2157E+02
     -7.095  0.0000E+00  0.2157E+02
     -7.084  0.9850E-15  0.2157E+02
     -7.074  0.1171E-09  0.2157E+02