PROCAR lm decomposed
# of k-points:   16         # of bands:   40         # of ions:   12

 k-point     1 :    0.00000000 0.00000000 0.00000000     weight = 0.02380952

band     1 # energy  -14.95456862 # occ.  2.00000000
 
ion      s     py     pz     px    dxy    dyz    dz2    dxz  x2-y2    tot
    1  0.009  0.000  0.000  0.000  0.000  0.000  0.000  0.000  0.000  0.010
    2  0.009  0.000  0.000  0.000  0.000  0.000  0.000  0.000  0.000  0.010
    3  0.015  0.000  0.000  0.000  0.000  0.000  0.000  0.000  0.000  0.016
    4  0.015  0.000  0.000  0.000  0.000  0.000  0.000  0.000  0.000  0.016
    5  0.097  0.003  0.002  0.000  0.000  0.000  0.000  0.000  0.000  0.102
    6  0.097  0.003  0.002  0.000  0.000  0.000  0.000  0.000  0.000  0.102
    7  0.097  0.003  0.002  0.000  0.000  0.000  0.000  0.000  0.000  0.102
    8  0.097  0.003  0.002  0.000  0.000  0.000  0.000  0.000  0.000  0.102
    9  0.015  0.000  0.000  0.000  0.000  0.000  0.000  0.000  0.000  0.016
   10  0.015  0.000  0.000  0.000  0.000  0.000  0.000  0.000  0.000  0.016
   11  0.009  0.000  0.000  0.000  0.000  0.000  0.000  0.000  0.000  0.010
   12  0.009  0.000  0.000  0.000  0.000  0.000  0.000  0.000  0.000  0.010
tot    0.489  0.014  0.008  0.000  0.000  0.000  0.000  0.000  0.000  0.511
 
band     2 # energy  -14.76811105 # occ.  2.00000000
 
ion      s     py     pz     px    dxy    dyz    dz2    dxz  x2-y2    tot
    1  0.057  0.002  0.001  0.000  0.000  0.000  0.000  0.000  0.000  0.060
    2  0.057  0.002  0.001  0.000  0.000  0.000  0.000  0.000  0.000  0.060
    3  0.065  0.002  0.001  0.000  0.000  0.000  0.000  0.000  0.000  0.068
    4  0.065  0.002  0.001  0.000  0.000  0.000  0.000  0.000  0.000  0.068
    5  0.000  0.000  0.000  0.000  0.000  0.000  0.000  0.000  0.000  0.000
    6  0.000  0.000  0.000  0.000  0.000  0.000  0.000  0.000  0.000  0.000
    7  0.000  0.000  0.000  0.000  0.000  0.000  0.000  0.000  0.000  0.000
    8  0.000  0.000  0.000  0.000  0.000  0.000  0.000  0.000  0.000  0.000
    9  0.065  0.002  0.001  0.000  0.000  0.000  0.000  0.000  0.000  0.068
   10  0.065  0.002  0.001  0.000  0.000  0.000  0.000  0.000  0.000  0.068
   11  0.057  0.002  0.001  0.000  0.000  0.000  0.000  0.000  0.000  0.060
   12  0.057  0.002  0.001  0.000  0.000  0.000  0.000  0.000  0.000  0.060
tot    0.490  0.017  0.008  0.000  0.000  0.000  0.000  0.000  0.000  0.514
 
band     3 # energy  -14.71212794 # occ.  2.00000000
 
ion      s     py     pz     px    dxy    dyz    dz2    dxz  x2-y2    tot
    1  0.049  0.002  0.001  0.000  0.000  0.000  0.000  0.000  0.000  0.051
    2  0.049  0.002  0.001  0.000  0.000  0.000  0.000  0.000  0.000  0.051
    3  0.049  0.002  0.001  0.000  0.000  0.000  0.000  0.000  0.000  0.052
    4  0.049  0.002  0.001  0.000  0.000  0.000  0.000  0.000  0.000  0.052
    5  0.025  0.001  0.000  0.000  0.000  0.000  0.000  0.000  0.000  0.026
    6  0.025  0.001  0.000  0.000  0.000  0.000  0.000  0.000  0.000  0.026
    7  0.025  0.001  0.000  0.000  0.000  0.000  0.000  0.000  0.000  0.026
    8  0.025  0.001  0.000  0.000  0.000  0.000  0.000  0.000  0.000  0.026
    9  0.049  0.002  0.001  0.000  0.000  0.000  0.000  0.000  0.000  0.052
   10  0.049  0.002  0.001  0.000  0.000  0.000  0.000  0.000  0.000  0.052
   11  0.049  0.002  0.001  0.000  0.000  0.000  0.000  0.000  0.000  0.051
   12  0.049  0.002  0.001  0.000  0.000  0.000  0.000  0.000  0.000  0.051
tot    0.491  0.019  0.008  0.000  0.000  0.000  0.000  0.000  0.000  0.518
 
band     4 # energy  -12.48052223 # occ.  2.00000000
 
ion      s     py     pz     px    dxy    dyz    dz2    dxz  x2-y2    tot
    1  0.025  0.000  0.002  0.000  0.000  0.000  0.000  0.000  0.000  0.027
    2  0.025  0.000  0.002  0.000  0.000  0.000  0.000  0.000  0.000  0.027
    3  0.016  0.001  0.001  0.000  0.000  0.000  0.000  0.000  0.000  0.018
    4  0.016  0.001  0.001  0.000  0.000  0.000  0.000  0.000  0.000  0.018
    5  0.082  0.001  0.007  0.000  0.000  0.000  0.000  0.000  0.000  0.090
    6  0.082  0.001  0.007  0.000  0.000  0.000  0.000  0.000  0.000  0.090
    7  0.082  0.001  0.007  0.000  0.000  0.000  0.000  0.000  0.000  0.090
    8  0.082  0.001  0.007  0.000  0.000  0.000  0.000  0.000  0.000  0.090
    9  0.016  0.001  0.001  0.000  0.000  0.000  0.000  0.000  0.000  0.018
   10  0.016  0.001  0.001  0.000  0.000  0.000  0.000  0.000  0.000  0.018
   11  0.025  0.000  0.002  0.000  0.000  0.000  0.000  0.000  0.000  0.027
   12  0.025  0.000  0.002  0.000  0.000  0.000  0.000  0.000  0.000  0.027
tot    0.493  0.009  0.041  0.000  0.000  0.000  0.000  0.000  0.000  0.542
 
band     5 # energy  -12.16630997 # occ.  2.00000000
 
ion      s     py     pz     px    dxy    dyz    dz2    dxz  x2-y2    tot
    1  0.066  0.001  0.006  0.000  0.000  0.000  0.000  0.000  0.000  0.072
    2  0.066  0.001  0.006  0.000  0.000  0.000  0.000  0.000  0.000  0.072
    3  0.059  0.001  0.006  0.000  0.000  0.000  0.000  0.000  0.000  0.066
    4  0.059  0.001  0.006  0.000  0.000  0.000  0.000  0.000  0.000  0.066
    5  0.000  0.000  0.000  0.000  0.000  0.000  0.000  0.000  0.000  0.001
    6  0.000  0.000  0.000  0.000  0.000  0.000  0.000  0.000  0.000  0.001
    7  0.000  0.000  0.000  0.000  0.000  0.000  0.000  0.000  0.000  0.001
    8  0.000  0.000  0.000  0.000  0.000  0.000  0.000  0.000  0.000  0.001
    9  0.059  0.001  0.006  0.000  0.000  0.000  0.000  0.000  0.000  0.066
   10  0.059  0.001  0.006  0.000  0.000  0.000  0.000  0.000  0.000  0.066
   11  0.066  0.001  0.006  0.000  0.000  0.000  0.000  0.000  0.000  0.072
   12  0.066  0.001  0.006  0.000  0.000  0.000  0.000  0.000  0.000  0.072
tot    0.504  0.007  0.046  0.000  0.000  0.000  0.000  0.000  0.000  0.557
 
band     6 # energy  -12.01024407 # occ.  2.00000000
 
ion      s     py     pz     px    dxy    dyz    dz2    dxz  x2-y2    tot
    1  0.042  0.001  0.004  0.000  0.000  0.000  0.000  0.000  0.000  0.046
    2  0.042  0.001  0.004  0.000  0.000  0.000  0.000  0.000  0.000  0.046
    3  0.044  0.000  0.004  0.000  0.000  0.000  0.000  0.000  0.000  0.048
    4  0.044  0.000  0.004  0.000  0.000  0.000  0.000  0.000  0.000  0.048
    5  0.043  0.000  0.005  0.000  0.000  0.000  0.000  0.000  0.000  0.048
    6  0.043  0.000  0.005  0.000  0.000  0.000  0.000  0.000  0.000  0.048
    7  0.043  0.000  0.005  0.000  0.000  0.000  0.000  0.000  0.000  0.048
    8  0.043  0.000  0.005  0.000  0.000  0.000  0.000  0.000  0.000  0.048
    9  0.044  0.000  0.004  0.000  0.000  0.000  0.000  0.000  0.000  0.048
   10  0.044  0.000  0.004  0.000  0.000  0.000  0.000  0.000  0.000  0.048
   11  0.042  0.001  0.004  0.000  0.000  0.000  0.000  0.000  0.000  0.046
   12  0.042  0.001  0.004  0.000  0.000  0.000  0.000  0.000  0.000  0.046
tot    0.514  0.004  0.053  0.000  0.000  0.000  0.000  0.000  0.000  0.570
 
band     7 # energy   -8.72453734 # occ.  2.00000000
 
ion      s     py     pz     px    dxy    dyz    dz2    dxz  x2-y2    tot
    1  0.009  0.001  0.001  0.000  0.000  0.000  0.000  0.000  0.000  0.011
    2  0.009  0.001  0.001  0.000  0.000  0.000  0.000  0.000  0.000  0.011
    3  0.013  0.001  0.001  0.000  0.000  0.000  0.000  0.000  0.000  0.015
    4  0.013  0.001  0.001  0.000  0.000  0.000  0.000  0.000  0.000  0.015
    5  0.103  0.010  0.009  0.000  0.000  0.000  0.000  0.000  0.000  0.122
    6  0.103  0.010  0.009  0.000  0.000  0.000  0.000  0.000  0.000  0.122
    7  0.103  0.010  0.009  0.000  0.000  0.000  0.000  0.000  0.000  0.122
    8  0.103  0.010  0.009  0.000  0.000  0.000  0.000  0.000  0.000  0.122
    9  0.013  0.001  0.001  0.000  0.000  0.000  0.000  0.000  0.000  0.015
   10  0.013  0.001  0.001  0.000  0.000  0.000  0.000  0.000  0.000  0.015
   11  0.009  0.001  0.001  0.000  0.000  0.000  0.000  0.000  0.000  0.011
   12  0.009  0.001  0.001  0.000  0.000  0.000  0.000  0.000  0.000  0.011
tot    0.505  0.045  0.046  0.000  0.000  0.000  0.000  0.000  0.000  0.596
 
band     8 # energy   -8.55379037 # occ.  2.00000000
 
ion      s     py     pz     px    dxy    dyz    dz2    dxz  x2-y2    tot
    1  0.061  0.007  0.006  0.000  0.000  0.000  0.000  0.000  0.000  0.073
    2  0.061  0.007  0.006  0.000  0.000  0.000  0.000  0.000  0.000  0.073
    3  0.065  0.006  0.006  0.000  0.000  0.000  0.000  0.000  0.000  0.077
    4  0.065  0.006  0.006  0.000  0.000  0.000  0.000  0.000  0.000  0.077
    5  0.000  0.000  0.000  0.000  0.000  0.000  0.000  0.000  0.000  0.000
    6  0.000  0.000  0.000  0.000  0.000  0.000  0.000  0.000  0.000  0.000
    7  0.000  0.000  0.000  0.000  0.000  0.000  0.000  0.000  0.000  0.000
    8  0.000  0.000  0.000  0.000  0.000  0.000  0.000  0.000  0.000  0.000
    9  0.065  0.006  0.006  0.000  0.000  0.000  0.000  0.000  0.000  0.077
   10  0.065  0.006  0.006  0.000  0.000  0.000  0.000  0.000  0.000  0.077
   11  0.061  0.007  0.006  0.000  0.000  0.000  0.000  0.000  0.000  0.073
   12  0.061  0.007  0.006  0.000  0.000  0.000  0.000  0.000  0.000  0.073
tot    0.502  0.051  0.046  0.000  0.000  0.000  0.000  0.000  0.000  0.599
 
band     9 # energy   -8.51163148 # occ.  2.00000000
 
ion      s     py     pz     px    dxy    dyz    dz2    dxz  x2-y2    tot
    1  0.052  0.005  0.005  0.000  0.000  0.000  0.000  0.000  0.000  0.062
    2  0.052  0.005  0.005  0.000  0.000  0.000  0.000  0.000  0.000  0.062
    3  0.051  0.006  0.005  0.000  0.000  0.000  0.000  0.000  0.000  0.062
    4  0.051  0.006  0.005  0.000  0.000  0.000  0.000  0.000  0.000  0.062
    5  0.022  0.003  0.002  0.000  0.000  0.000  0.000  0.000  0.000  0.027
    6  0.022  0.003  0.002  0.000  0.000  0.000  0.000  0.000  0.000  0.027
    7  0.022  0.003  0.002  0.000  0.000  0.000  0.000  0.000  0.000  0.027
    8  0.022  0.003  0.002  0.000  0.000  0.000  0.000  0.000  0.000  0.027
    9  0.051  0.006  0.005  0.000  0.000  0.000  0.000  0.000  0.000  0.062
   10  0.051  0.006  0.005  0.000  0.000  0.000  0.000  0.000  0.000  0.062
   11  0.052  0.005  0.005  0.000  0.000  0.000  0.000  0.000  0.000  0.062
   12  0.052  0.005  0.005  0.000  0.000  0.000  0.000  0.000  0.000  0.062
tot    0.499  0.057  0.046  0.000  0.000  0.000  0.000  0.000  0.000  0.602
 
band    10 # energy   -6.06258185 # occ.  2.00000000
 
ion      s     py     pz     px    dxy    dyz    dz2    dxz  x2-y2    tot
    1  0.001  0.009  0.006  0.000  0.000  0.000  0.000  0.000  0.000  0.016
    2  0.001  0.009  0.006  0.000  0.000  0.000  0.000  0.000  0.000  0.016
    3  0.000  0.021  0.000  0.000  0.000  0.000  0.000  0.000  0.000  0.022
    4  0.000  0.021  0.000  0.000  0.000  0.000  0.000  0.000  0.000  0.022
    5  0.001  0.050  0.007  0.000  0.000  0.000  0.000  0.000  0.000  0.058
    6  0.001  0.050  0.007  0.000  0.000  0.000  0.000  0.000  0.000  0.058
    7  0.001  0.050  0.007  0.000  0.000  0.000  0.000  0.000  0.000  0.058
    8  0.001  0.050  0.007  0.000  0.000  0.000  0.000  0.000  0.000  0.058
    9  0.000  0.021  0.000  0.000  0.000  0.000  0.000  0.000  0.000  0.022
   10  0.000  0.021  0.000  0.000  0.000  0.000  0.000  0.000  0.000  0.022
   11  0.001  0.009  0.006  0.000  0.000  0.000  0.000  0.000  0.000  0.016
   12  0.001  0.009  0.006  0.000  0.000  0.000  0.000  0.000  0.000  0.016
tot    0.009  0.323  0.052  0.000  0.000  0.000  0.000  0.000  0.000  0.383
 
band    11 # energy   -5.62552932 # occ.  2.00000000
 
ion      s     py     pz     px    dxy    dyz    dz2    dxz  x2-y2    tot
    1  0.002  0.028  0.011  0.000  0.000  0.000  0.000  0.000  0.000  0.040
    2  0.002  0.028  0.011  0.000  0.000  0.000  0.000  0.000  0.000  0.040
    3  0.001  0.039  0.004  0.000  0.000  0.000  0.000  0.000  0.000  0.044
    4  0.001  0.039  0.004  0.000  0.000  0.000  0.000  0.000  0.000  0.044
    5  0.000  0.004  0.011  0.000  0.000  0.000  0.000  0.000  0.000  0.015
    6  0.000  0.004  0.011  0.000  0.000  0.000  0.000  0.000  0.000  0.015
    7  0.000  0.004  0.011  0.000  0.000  0.000  0.000  0.000  0.000  0.015
    8  0.000  0.004  0.011  0.000  0.000  0.000  0.000  0.000  0.000  0.015
    9  0.001  0.039  0.004  0.000  0.000  0.000  0.000  0.000  0.000  0.044
   10  0.001  0.039  0.004  0.000  0.000  0.000  0.000  0.000  0.000  0.044
   11  0.002  0.028  0.011  0.000  0.000  0.000  0.000  0.000  0.000  0.040
   12  0.002  0.028  0.011  0.000  0.000  0.000  0.000  0.000  0.000  0.040
tot    0.011  0.280  0.103  0.000  0.000  0.000  0.000  0.000  0.000  0.394
 
band    12 # energy   -5.17969803 # occ.  2.00000000
 
ion      s     py     pz     px    dxy    dyz    dz2    dxz  x2-y2    tot
    1  0.001  0.032  0.003  0.000  0.000  0.000  0.000  0.000  0.000  0.036
    2  0.001  0.032  0.003  0.000  0.000  0.000  0.000  0.000  0.000  0.036
    3  0.001  0.017  0.021  0.000  0.000  0.000  0.000  0.000  0.000  0.039
    4  0.001  0.017  0.021  0.000  0.000  0.000  0.000  0.000  0.000  0.039
    5  0.001  0.019  0.011  0.000  0.000  0.000  0.000  0.000  0.000  0.032
    6  0.001  0.019  0.011  0.000  0.000  0.000  0.000  0.000  0.000  0.032
    7  0.001  0.019  0.011  0.000  0.000  0.000  0.000  0.000  0.000  0.032
    8  0.001  0.019  0.011  0.000  0.000  0.000  0.000  0.000  0.000  0.032
    9  0.001  0.017  0.021  0.000  0.000  0.000  0.000  0.000  0.000  0.039
   10  0.001  0.017  0.021  0.000  0.000  0.000  0.000  0.000  0.000  0.039
   11  0.001  0.032  0.003  0.000  0.000  0.000  0.000  0.000  0.000  0.036
   12  0.001  0.032  0.003  0.000  0.000  0.000  0.000  0.000  0.000  0.036
tot    0.015  0.274  0.141  0.000  0.000  0.000  0.000  0.000  0.000  0.430
 
band    13 # energy   -4.79208214 # occ.  2.00000000
 
ion      s     py     pz     px    dxy    dyz    dz2    dxz  x2-y2    tot
    1  0.027  0.000  0.003  0.000  0.000  0.000  0.000  0.000  0.000  0.030
    2  0.027  0.000  0.003  0.000  0.000  0.000  0.000  0.000  0.000  0.030
    3  0.022  0.005  0.002  0.000  0.000  0.000  0.000  0.000  0.000  0.029
    4  0.022  0.005  0.002  0.000  0.000  0.000  0.000  0.000  0.000  0.029
    5  0.079  0.005  0.008  0.000  0.000  0.000  0.000  0.000  0.000  0.092
    6  0.079  0.005  0.008  0.000  0.000  0.000  0.000  0.000  0.000  0.092
    7  0.079  0.005  0.008  0.000  0.000  0.000  0.000  0.000  0.000  0.092
    8  0.079  0.005  0.008  0.000  0.000  0.000  0.000  0.000  0.000  0.092
    9  0.022  0.005  0.002  0.000  0.000  0.000  0.000  0.000  0.000  0.029
   10  0.022  0.005  0.002  0.000  0.000  0.000  0.000  0.000  0.000  0.029
   11  0.027  0.000  0.003  0.000  0.000  0.000  0.000  0.000  0.000  0.030
   12  0.027  0.000  0.003  0.000  0.000  0.000  0.000  0.000  0.000  0.030
tot    0.512  0.042  0.052  0.000  0.000  0.000  0.000  0.000  0.000  0.606
 
band    14 # energy   -4.58590306 # occ.  2.00000000
 
ion      s     py     pz     px    dxy    dyz    dz2    dxz  x2-y2    tot
    1  0.001  0.020  0.005  0.000  0.000  0.000  0.000  0.000  0.000  0.025
    2  0.001  0.020  0.005  0.000  0.000  0.000  0.000  0.000  0.000  0.025
    3  0.000  0.000  0.034  0.000  0.000  0.000  0.000  0.000  0.000  0.034
    4  0.000  0.000  0.034  0.000  0.000  0.000  0.000  0.000  0.000  0.034
    5  0.000  0.007  0.022  0.000  0.000  0.000  0.000  0.000  0.000  0.030
    6  0.000  0.007  0.022  0.000  0.000  0.000  0.000  0.000  0.000  0.030
    7  0.000  0.007  0.022  0.000  0.000  0.000  0.000  0.000  0.000  0.030
    8  0.000  0.007  0.022  0.000  0.000  0.000  0.000  0.000  0.000  0.030
    9  0.000  0.000  0.034  0.000  0.000  0.000  0.000  0.000  0.000  0.034
   10  0.000  0.000  0.034  0.000  0.000  0.000  0.000  0.000  0.000  0.034
   11  0.001  0.020  0.005  0.000  0.000  0.000  0.000  0.000  0.000  0.025
   12  0.001  0.020  0.005  0.000  0.000  0.000  0.000  0.000  0.000  0.025
tot    0.004  0.108  0.245  0.000  0.000  0.000  0.000  0.000  0.000  0.357
 
band    15 # energy   -4.27015025 # occ.  2.00000000
 
ion      s     py     pz     px    dxy    dyz    dz2    dxz  x2-y2    tot
    1  0.068  0.003  0.007  0.000  0.000  0.000  0.000  0.000  0.000  0.078
    2  0.068  0.003  0.007  0.000  0.000  0.000  0.000  0.000  0.000  0.078
    3  0.066  0.005  0.007  0.000  0.000  0.000  0.000  0.000  0.000  0.077
    4  0.066  0.005  0.007  0.000  0.000  0.000  0.000  0.000  0.000  0.077
    5  0.000  0.002  0.000  0.000  0.000  0.000  0.000  0.000  0.000  0.002
    6  0.000  0.002  0.000  0.000  0.000  0.000  0.000  0.000  0.000  0.002
    7  0.000  0.002  0.000  0.000  0.000  0.000  0.000  0.000  0.000  0.002
    8  0.000  0.002  0.000  0.000  0.000  0.000  0.000  0.000  0.000  0.002
    9  0.066  0.005  0.007  0.000  0.000  0.000  0.000  0.000  0.000  0.077
   10  0.066  0.005  0.007  0.000  0.000  0.000  0.000  0.000  0.000  0.077
   11  0.068  0.003  0.007  0.000  0.000  0.000  0.000  0.000  0.000  0.078
   12  0.068  0.003  0.007  0.000  0.000  0.000  0.000  0.000  0.000  0.078
tot    0.535  0.039  0.056  0.000  0.000  0.000  0.000  0.000  0.000  0.630
 
band    16 # energy   -4.17798122 # occ.  2.00000000
 
ion      s     py     pz     px    dxy    dyz    dz2    dxz  x2-y2    tot
    1  0.001  0.006  0.033  0.000  0.000  0.000  0.000  0.000  0.000  0.040
    2  0.001  0.006  0.033  0.000  0.000  0.000  0.000  0.000  0.000  0.040
    3  0.001  0.009  0.025  0.000  0.000  0.000  0.000  0.000  0.000  0.035
    4  0.001  0.009  0.025  0.000  0.000  0.000  0.000  0.000  0.000  0.035
    5  0.001  0.007  0.009  0.000  0.000  0.000  0.000  0.000  0.000  0.016
    6  0.001  0.007  0.009  0.000  0.000  0.000  0.000  0.000  0.000  0.016
    7  0.001  0.007  0.009  0.000  0.000  0.000  0.000  0.000  0.000  0.016
    8  0.001  0.007  0.009  0.000  0.000  0.000  0.000  0.000  0.000  0.016
    9  0.001  0.009  0.025  0.000  0.000  0.000  0.000  0.000  0.000  0.035
   10  0.001  0.009  0.025  0.000  0.000  0.000  0.000  0.000  0.000  0.035
   11  0.001  0.006  0.033  0.000  0.000  0.000  0.000  0.000  0.000  0.040
   12  0.001  0.006  0.033  0.000  0.000  0.000  0.000  0.000  0.000  0.040
tot    0.011  0.086  0.266  0.000  0.000  0.000  0.000  0.000  0.000  0.362
 
band    17 # energy   -4.04060262 # occ.  2.00000000
 
ion      s     py     pz     px    dxy    dyz    dz2    dxz  x2-y2    tot
    1  0.000  0.000  0.028  0.000  0.000  0.000  0.000  0.000  0.000  0.028
    2  0.000  0.000  0.028  0.000  0.000  0.000  0.000  0.000  0.000  0.028
    3  0.002  0.009  0.008  0.000  0.000  0.000  0.000  0.000  0.000  0.020
    4  0.002  0.009  0.008  0.000  0.000  0.000  0.000  0.000  0.000  0.020
    5  0.003  0.005  0.032  0.000  0.000  0.000  0.000  0.000  0.000  0.040
    6  0.003  0.005  0.032  0.000  0.000  0.000  0.000  0.000  0.000  0.040
    7  0.003  0.005  0.032  0.000  0.000  0.000  0.000  0.000  0.000  0.040
    8  0.003  0.005  0.032  0.000  0.000  0.000  0.000  0.000  0.000  0.040
    9  0.002  0.009  0.008  0.000  0.000  0.000  0.000  0.000  0.000  0.020
   10  0.002  0.009  0.008  0.000  0.000  0.000  0.000  0.000  0.000  0.020
   11  0.000  0.000  0.028  0.000  0.000  0.000  0.000  0.000  0.000  0.028
   12  0.000  0.000  0.028  0.000  0.000  0.000  0.000  0.000  0.000  0.028
tot    0.020  0.060  0.272  0.000  0.000  0.000  0.000  0.000  0.000  0.352
 
band    18 # energy   -3.84858145 # occ.  2.00000000
 
ion      s     py     pz     px    dxy    dyz    dz2    dxz  x2-y2    tot
    1  0.045  0.003  0.005  0.000  0.000  0.000  0.000  0.000  0.000  0.053
    2  0.045  0.003  0.005  0.000  0.000  0.000  0.000  0.000  0.000  0.053
    3  0.045  0.001  0.005  0.000  0.000  0.000  0.000  0.000  0.000  0.050
    4  0.045  0.001  0.005  0.000  0.000  0.000  0.000  0.000  0.000  0.050
    5  0.055  0.002  0.006  0.000  0.000  0.000  0.000  0.000  0.000  0.063
    6  0.055  0.002  0.006  0.000  0.000  0.000  0.000  0.000  0.000  0.063
    7  0.055  0.002  0.006  0.000  0.000  0.000  0.000  0.000  0.000  0.063
    8  0.055  0.002  0.006  0.000  0.000  0.000  0.000  0.000  0.000  0.063
    9  0.045  0.001  0.005  0.000  0.000  0.000  0.000  0.000  0.000  0.050
   10  0.045  0.001  0.005  0.000  0.000  0.000  0.000  0.000  0.000  0.050
   11  0.045  0.003  0.005  0.000  0.000  0.000  0.000  0.000  0.000  0.053
   12  0.045  0.003  0.005  0.000  0.000  0.000  0.000  0.000  0.000  0.053
tot    0.577  0.024  0.063  0.000  0.000  0.000  0.000  0.000  0.000  0.665
 
band    19 # energy   -3.49347882 # occ.  2.00000000
 
ion      s     py     pz     px    dxy    dyz    dz2    dxz  x2-y2    tot
    1  0.000  0.000  0.000  0.007  0.000  0.000  0.000  0.000  0.000  0.007
    2  0.000  0.000  0.000  0.007  0.000  0.000  0.000  0.000  0.000  0.007
    3  0.000  0.000  0.000  0.012  0.000  0.000  0.000  0.000  0.000  0.012
    4  0.000  0.000  0.000  0.012  0.000  0.000  0.000  0.000  0.000  0.012
    5  0.000  0.000  0.000  0.105  0.000  0.000  0.000  0.000  0.000  0.105
    6  0.000  0.000  0.000  0.105  0.000  0.000  0.000  0.000  0.000  0.105
    7  0.000  0.000  0.000  0.105  0.000  0.000  0.000  0.000  0.000  0.105
    8  0.000  0.000  0.000  0.105  0.000  0.000  0.000  0.000  0.000  0.105
    9  0.000  0.000  0.000  0.012  0.000  0.000  0.000  0.000  0.000  0.012
   10  0.000  0.000  0.000  0.012  0.000  0.000  0.000  0.000  0.000  0.012
   11  0.000  0.000  0.000  0.007  0.000  0.000  0.000  0.000  0.000  0.007
   12  0.000  0.000  0.000  0.007  0.000  0.000  0.000  0.000  0.000  0.007
tot    0.000  0.000  0.000  0.497  0.000  0.000  0.000  0.000  0.000  0.497
 
band    20 # energy   -3.32721333 # occ.  2.00000000
 
ion      s     py     pz     px    dxy    dyz    dz2    dxz  x2-y2    tot
    1  0.000  0.000  0.000  0.056  0.000  0.000  0.000  0.000  0.000  0.056
    2  0.000  0.000  0.000  0.056  0.000  0.000  0.000  0.000  0.000  0.056
    3  0.000  0.000  0.000  0.068  0.000  0.000  0.000  0.000  0.000  0.068
    4  0.000  0.000  0.000  0.068  0.000  0.000  0.000  0.000  0.000  0.068
    5  0.000  0.000  0.000  0.000  0.000  0.000  0.000  0.000  0.000  0.000
    6  0.000  0.000  0.000  0.000  0.000  0.000  0.000  0.000  0.000  0.000
    7  0.000  0.000  0.000  0.000  0.000  0.000  0.000  0.000  0.000  0.000
    8  0.000  0.000  0.000  0.000  0.000  0.000  0.000  0.000  0.000  0.000
    9  0.000  0.000  0.000  0.068  0.000  0.000  0.000  0.000  0.000  0.068
   10  0.000  0.000  0.000  0.068  0.000  0.000  0.000  0.000  0.000  0.068
   11  0.000  0.000  0.000  0.056  0.000  0.000  0.000  0.000  0.000  0.056
   12  0.000  0.000  0.000  0.056  0.000  0.000  0.000  0.000  0.000  0.056
tot    0.000  0.000  0.000  0.499  0.000  0.000  0.000  0.000  0.000  0.499
 
band    21 # energy   -3.29137118 # occ.  2.00000000
 
ion      s     py     pz     px    dxy    dyz    dz2    dxz  x2-y2    tot
    1  0.000  0.000  0.000  0.051  0.000  0.000  0.000  0.000  0.000  0.051
    2  0.000  0.000  0.000  0.051  0.000  0.000  0.000  0.000  0.000  0.051
    3  0.000  0.000  0.000  0.055  0.000  0.000  0.000  0.000  0.000  0.055
    4  0.000  0.000  0.000  0.055  0.000  0.000  0.000  0.000  0.000  0.055
    5  0.000  0.000  0.000  0.019  0.000  0.000  0.000  0.000  0.000  0.019
    6  0.000  0.000  0.000  0.019  0.000  0.000  0.000  0.000  0.000  0.019
    7  0.000  0.000  0.000  0.019  0.000  0.000  0.000  0.000  0.000  0.019
    8  0.000  0.000  0.000  0.019  0.000  0.000  0.000  0.000  0.000  0.019
    9  0.000  0.000  0.000  0.055  0.000  0.000  0.000  0.000  0.000  0.055
   10  0.000  0.000  0.000  0.055  0.000  0.000  0.000  0.000  0.000  0.055
   11  0.000  0.000  0.000  0.051  0.000  0.000  0.000  0.000  0.000  0.051
   12  0.000  0.000  0.000  0.051  0.000  0.000  0.000  0.000  0.000  0.051
tot    0.000  0.000  0.000  0.501  0.000  0.000  0.000  0.000  0.000  0.501
 
band    22 # energy   -2.01500107 # occ.  2.00000000
 
ion      s     py     pz     px    dxy    dyz    dz2    dxz  x2-y2    tot
    1  0.001  0.000  0.029  0.000  0.000  0.000  0.000  0.000  0.000  0.030
    2  0.001  0.000  0.029  0.000  0.000  0.000  0.000  0.000  0.000  0.030
    3  0.001  0.001  0.012  0.000  0.000  0.000  0.000  0.000  0.000  0.013
    4  0.001  0.001  0.012  0.000  0.000  0.000  0.000  0.000  0.000  0.013
    5  0.000  0.004  0.055  0.000  0.000  0.000  0.000  0.000  0.000  0.059
    6  0.000  0.004  0.055  0.000  0.000  0.000  0.000  0.000  0.000  0.059
    7  0.000  0.004  0.055  0.000  0.000  0.000  0.000  0.000  0.000  0.059
    8  0.000  0.004  0.055  0.000  0.000  0.000  0.000  0.000  0.000  0.059
    9  0.001  0.001  0.012  0.000  0.000  0.000  0.000  0.000  0.000  0.013
   10  0.001  0.001  0.012  0.000  0.000  0.000  0.000  0.000  0.000  0.013
   11  0.001  0.000  0.029  0.000  0.000  0.000  0.000  0.000  0.000  0.030
   12  0.001  0.000  0.029  0.000  0.000  0.000  0.000  0.000  0.000  0.030
tot    0.005  0.018  0.384  0.000  0.000  0.000  0.000  0.000  0.000  0.407
 
band    23 # energy   -1.83224617 # occ.  2.00000000
 
ion      s     py     pz     px    dxy    dyz    dz2    dxz  x2-y2    tot
    1  0.000  0.000  0.000  0.020  0.000  0.000  0.000  0.000  0.000  0.020
    2  0.000  0.000  0.000  0.020  0.000  0.000  0.000  0.000  0.000  0.020
    3  0.000  0.000  0.000  0.010  0.000  0.000  0.000  0.000  0.000  0.010
    4  0.000  0.000  0.000  0.010  0.000  0.000  0.000  0.000  0.000  0.010
    5  0.000  0.000  0.000  0.102  0.000  0.000  0.000  0.000  0.000  0.102
    6  0.000  0.000  0.000  0.102  0.000  0.000  0.000  0.000  0.000  0.102
    7  0.000  0.000  0.000  0.102  0.000  0.000  0.000  0.000  0.000  0.102
    8  0.000  0.000  0.000  0.102  0.000  0.000  0.000  0.000  0.000  0.102
    9  0.000  0.000  0.000  0.010  0.000  0.000  0.000  0.000  0.000  0.010
   10  0.000  0.000  0.000  0.010  0.000  0.000  0.000  0.000  0.000  0.010
   11  0.000  0.000  0.000  0.020  0.000  0.000  0.000  0.000  0.000  0.020
   12  0.000  0.000  0.000  0.020  0.000  0.000  0.000  0.000  0.000  0.020
tot    0.000  0.000  0.000  0.528  0.000  0.000  0.000  0.000  0.000  0.528
 
band    24 # energy   -1.68082099 # occ.  2.00000000
 
ion      s     py     pz     px    dxy    dyz    dz2    dxz  x2-y2    tot
    1  0.000  0.007  0.043  0.000  0.000  0.000  0.000  0.000  0.000  0.050
    2  0.000  0.007  0.043  0.000  0.000  0.000  0.000  0.000  0.000  0.050
    3  0.000  0.005  0.036  0.000  0.000  0.000  0.000  0.000  0.000  0.040
    4  0.000  0.005  0.036  0.000  0.000  0.000  0.000  0.000  0.000  0.040
    5  0.002  0.002  0.003  0.000  0.000  0.000  0.000  0.000  0.000  0.007
    6  0.002  0.002  0.003  0.000  0.000  0.000  0.000  0.000  0.000  0.007
    7  0.002  0.002  0.003  0.000  0.000  0.000  0.000  0.000  0.000  0.007
    8  0.002  0.002  0.003  0.000  0.000  0.000  0.000  0.000  0.000  0.007
    9  0.000  0.005  0.036  0.000  0.000  0.000  0.000  0.000  0.000  0.040
   10  0.000  0.005  0.036  0.000  0.000  0.000  0.000  0.000  0.000  0.040
   11  0.000  0.007  0.043  0.000  0.000  0.000  0.000  0.000  0.000  0.050
   12  0.000  0.007  0.043  0.000  0.000  0.000  0.000  0.000  0.000  0.050
tot    0.012  0.052  0.324  0.000  0.000  0.000  0.000  0.000  0.000  0.387
 
band    25 # energy   -1.62267500 # occ.  2.00000000
 
ion      s     py     pz     px    dxy    dyz    dz2    dxz  x2-y2    tot
    1  0.000  0.000  0.000  0.072  0.000  0.000  0.000  0.000  0.000  0.072
    2  0.000  0.000  0.000  0.072  0.000  0.000  0.000  0.000  0.000  0.072
    3  0.000  0.000  0.000  0.061  0.000  0.000  0.000  0.000  0.000  0.061
    4  0.000  0.000  0.000  0.061  0.000  0.000  0.000  0.000  0.000  0.061
    5  0.000  0.000  0.000  0.000  0.000  0.000  0.000  0.000  0.000  0.000
    6  0.000  0.000  0.000  0.000  0.000  0.000  0.000  0.000  0.000  0.000
    7  0.000  0.000  0.000  0.000  0.000  0.000  0.000  0.000  0.000  0.000
    8  0.000  0.000  0.000  0.000  0.000  0.000  0.000  0.000  0.000  0.000
    9  0.000  0.000  0.000  0.061  0.000  0.000  0.000  0.000  0.000  0.061
   10  0.000  0.000  0.000  0.061  0.000  0.000  0.000  0.000  0.000  0.061
   11  0.000  0.000  0.000  0.072  0.000  0.000  0.000  0.000  0.000  0.072
   12  0.000  0.000  0.000  0.072  0.000  0.000  0.000  0.000  0.000  0.072
tot    0.000  0.000  0.000  0.534  0.000  0.000  0.000  0.000  0.000  0.534
 
band    26 # energy   -1.56493966 # occ.  2.00000000
 
ion      s     py     pz     px    dxy    dyz    dz2    dxz  x2-y2    tot
    1  0.000  0.000  0.000  0.053  0.000  0.000  0.000  0.000  0.000  0.053
    2  0.000  0.000  0.000  0.053  0.000  0.000  0.000  0.000  0.000  0.053
    3  0.000  0.000  0.000  0.051  0.000  0.000  0.000  0.000  0.000  0.051
    4  0.000  0.000  0.000  0.051  0.000  0.000  0.000  0.000  0.000  0.051
    5  0.000  0.000  0.000  0.031  0.000  0.000  0.000  0.000  0.000  0.031
    6  0.000  0.000  0.000  0.031  0.000  0.000  0.000  0.000  0.000  0.031
    7  0.000  0.000  0.000  0.031  0.000  0.000  0.000  0.000  0.000  0.031
    8  0.000  0.000  0.000  0.031  0.000  0.000  0.000  0.000  0.000  0.031
    9  0.000  0.000  0.000  0.051  0.000  0.000  0.000  0.000  0.000  0.051
   10  0.000  0.000  0.000  0.051  0.000  0.000  0.000  0.000  0.000  0.051
   11  0.000  0.000  0.000  0.053  0.000  0.000  0.000  0.000  0.000  0.053
   12  0.000  0.000  0.000  0.053  0.000  0.000  0.000  0.000  0.000  0.053
tot    0.000  0.000  0.000  0.539  0.000  0.000  0.000  0.000  0.000  0.539
 
band    27 # energy   -1.12291623 # occ.  2.00000000
 
ion      s     py     pz     px    dxy    dyz    dz2    dxz  x2-y2    tot
    1  0.000  0.014  0.015  0.000  0.000  0.000  0.000  0.000  0.000  0.029
    2  0.000  0.014  0.015  0.000  0.000  0.000  0.000  0.000  0.000  0.029
    3  0.003  0.003  0.033  0.000  0.000  0.000  0.000  0.000  0.000  0.039
    4  0.003  0.003  0.033  0.000  0.000  0.000  0.000  0.000  0.000  0.039
    5  0.001  0.011  0.020  0.000  0.000  0.000  0.000  0.000  0.000  0.032
    6  0.001  0.011  0.020  0.000  0.000  0.000  0.000  0.000  0.000  0.032
    7  0.001  0.011  0.020  0.000  0.000  0.000  0.000  0.000  0.000  0.032
    8  0.001  0.011  0.020  0.000  0.000  0.000  0.000  0.000  0.000  0.032