<?xml version="1.0" encoding="ISO-8859-1"?>
<modeling>
 <generator>
  <i name="program" type="string">vasp </i>
  <i name="version" type="string">5.4.4.18Apr17-6-g9f103f2a35  </i>
  <i name="subversion" type="string">(build Jun 20 2017 18:00:50) complex            parallel </i>
  <i name="platform" type="string">LinuxIFC </i>
  <i name="date" type="string">2018 03 22 </i>
  <i name="time" type="string">15:18:11 </i>
 </generator>
 <incar>
  <i type="string" name="SYSTEM"> Generic Input</i>
  <i type="int" name="ISTART">     1</i>
  <i type="string" name="PREC">normal    ! precision level</i>
  <i type="int" name="IALGO">    53</i>
  <i type="string" name="ALGO"> Normal    ! SCF minimisation algorithm</i>
  <i type="int" name="INIWAV">     1</i>
  <i type="int" name="NELM">   200</i>
  <i type="int" name="NELMIN">     2</i>
  <i type="int" name="IBRION">     2</i>
  <i name="EDIFF">      0.00001000</i>
  <i name="EDIFFG">     -0.02000000</i>
  <i type="int" name="NSW">     0</i>
  <i type="int" name="ISIF">     3</i>
  <i type="int" name="IWAVPR">    11</i>
  <i type="int" name="NBLOCK">     1</i>
  <i type="int" name="KBLOCK">    40</i>
  <i name="ENCUT">    450.00000000</i>
  <i type="int" name="NEDOS">  2000</i>
  <i type="int" name="ISMEAR">     0</i>
  <i name="SIGMA">      0.01000000</i>
  <i type="int" name="NWRITE">     2</i>
  <i type="logical" name="LVHAR"> T  </i>
  <i type="int" name="LORBIT">    11</i>
  <i type="logical" name="LASPH"> T  </i>
  <i type="int" name="ICORELEVEL">     1</i>
  <v type="int" name="KPOINT_BSE">    -1     0     0     0</v>
  <i type="int" name="NELM">   200</i>
  <i type="string" name="GGA"> PE        ! PBEsol exchange-correlation</i>
  <i type="logical" name="LASPH"> T  </i>
 </incar>
 <structure name="primitive_cell" >
  <crystal>
   <varray name="basis" >
    <v>       3.34288600       0.00000000       0.00000000 </v>
    <v>       0.00000000      32.60240900       0.00000000 </v>
    <v>       0.00000000       0.00000000       4.37483100 </v>
   </varray>
   <i name="volume">    476.79592902 </i>
   <varray name="rec_basis" >
    <v>       0.29914272       0.00000000       0.00000000 </v>
    <v>       0.00000000       0.03067258       0.00000000 </v>
    <v>       0.00000000       0.00000000       0.22858026 </v>
   </varray>
  </crystal>
  <varray name="positions" >
   <v>       0.00000000       0.30672600      -0.08107600 </v>
   <v>      -0.50000000       0.30672600      -0.41892400 </v>
   <v>       0.00000000       0.37246700       0.08107600 </v>
   <v>      -0.50000000       0.37246700       0.41892400 </v>
   <v>       0.00000000       0.46712900      -0.08107600 </v>
   <v>      -0.50000000       0.46712900      -0.41892400 </v>
   <v>       0.00000000      -0.46712900       0.08107600 </v>
   <v>      -0.50000000      -0.46712900       0.41892400 </v>
   <v>       0.00000000      -0.37246700      -0.08107600 </v>
   <v>      -0.50000000      -0.37246700      -0.41892400 </v>
   <v>       0.00000000      -0.30672600       0.08107600 </v>
   <v>      -0.50000000      -0.30672600       0.41892400 </v>
  </varray>
 </structure>
 <varray name="primitive_index" >
  <v type="int" >        1 </v>
  <v type="int" >        2 </v>
  <v type="int" >        3 </v>
  <v type="int" >        4 </v>
  <v type="int" >        5 </v>
  <v type="int" >        6 </v>
  <v type="int" >        7 </v>
  <v type="int" >        8 </v>
  <v type="int" >        9 </v>
  <v type="int" >       10 </v>
  <v type="int" >       11 </v>
  <v type="int" >       12 </v>
 </varray>
 <kpoints>
  <generation param="Gamma">
   <v type="int" name="divisions">       7        1        6 </v>
   <v name="usershift">      0.00000000       0.00000000       0.00000000 </v>
   <v name="genvec1">      0.14285714       0.00000000       0.00000000 </v>
   <v name="genvec2">      0.00000000       1.00000000       0.00000000 </v>
   <v name="genvec3">      0.00000000       0.00000000       0.16666667 </v>
   <v name="shift">      0.00000000       0.00000000       0.00000000 </v>
  </generation>
  <varray name="kpointlist" >
   <v>       0.00000000       0.00000000       0.00000000 </v>
   <v>       0.14285714       0.00000000       0.00000000 </v>
   <v>       0.28571429       0.00000000       0.00000000 </v>
   <v>       0.42857143       0.00000000       0.00000000 </v>
   <v>       0.00000000       0.00000000       0.16666667 </v>
   <v>       0.14285714       0.00000000       0.16666667 </v>
   <v>       0.28571429       0.00000000       0.16666667 </v>
   <v>       0.42857143       0.00000000       0.16666667 </v>
   <v>       0.00000000       0.00000000       0.33333333 </v>
   <v>       0.14285714       0.00000000       0.33333333 </v>
   <v>       0.28571429       0.00000000       0.33333333 </v>
   <v>       0.42857143       0.00000000       0.33333333 </v>
   <v>       0.00000000       0.00000000       0.50000000 </v>
   <v>       0.14285714       0.00000000       0.50000000 </v>
   <v>       0.28571429       0.00000000       0.50000000 </v>
   <v>       0.42857143       0.00000000       0.50000000 </v>
  </varray>
  <varray name="weights" >
   <v>       0.02380952 </v>
   <v>       0.04761905 </v>
   <v>       0.04761905 </v>
   <v>       0.04761905 </v>
   <v>       0.04761905 </v>
   <v>       0.09523810 </v>
   <v>       0.09523810 </v>
   <v>       0.09523810 </v>
   <v>       0.04761905 </v>
   <v>       0.09523810 </v>
   <v>       0.09523810 </v>
   <v>       0.09523810 </v>
   <v>       0.02380952 </v>
   <v>       0.04761905 </v>
   <v>       0.04761905 </v>
   <v>       0.04761905 </v>
  </varray>
 </kpoints>
 <parameters>
  <separator name="general" >
   <i type="string" name="SYSTEM">Generic Input</i>
   <i type="logical" name="LCOMPAT"> F  </i>
  </separator>
  <separator name="electronic" >
   <i type="string" name="PREC">normal</i>
   <i name="ENMAX">    450.00000000</i>
   <i name="ENAUG">    342.92400000</i>
   <i name="EDIFF">      0.00001000</i>
   <i type="int" name="IALGO">    38</i>
   <i type="int" name="IWAVPR">    11</i>
   <i type="int" name="NBANDS">    40</i>
   <i name="NELECT">     60.00000000</i>
   <i type="int" name="TURBO">     0</i>
   <i type="int" name="IRESTART">     0</i>
   <i type="int" name="NREBOOT">     0</i>
   <i type="int" name="NMIN">     0</i>
   <i name="EREF">      0.00000000</i>
   <separator name="electronic smearing" >
    <i type="int" name="ISMEAR">     0</i>
    <i name="SIGMA">      0.01000000</i>
    <i name="KSPACING">      0.50000000</i>
    <i type="logical" name="KGAMMA"> T  </i>
   </separator>
   <separator name="electronic projectors" >
    <i type="logical" name="LREAL"> F  </i>
    <v name="ROPT">      0.00000000</v>
    <i type="int" name="LMAXPAW">  -100</i>
    <i type="int" name="LMAXMIX">     2</i>
    <i type="logical" name="NLSPLINE"> F  </i>
   </separator>
   <separator name="electronic startup" >
    <i type="int" name="ISTART">     0</i>
    <i type="int" name="ICHARG">     2</i>
    <i type="int" name="INIWAV">     1</i>
   </separator>
   <separator name="electronic spin" >
    <i type="int" name="ISPIN">     1</i>
    <i type="logical" name="LNONCOLLINEAR"> F  </i>
    <v name="MAGMOM">      1.00000000      1.00000000      1.00000000      1.00000000      1.00000000      1.00000000      1.00000000      1.00000000      1.00000000      1.00000000      1.00000000      1.00000000</v>
    <i name="NUPDOWN">     -1.00000000</i>
    <i type="logical" name="LSORBIT"> F  </i>
    <v name="SAXIS">      0.00000000      0.00000000      1.00000000</v>
    <i type="logical" name="LSPIRAL"> F  </i>
    <v name="QSPIRAL">      0.00000000      0.00000000      0.00000000</v>
    <i type="logical" name="LZEROZ"> F  </i>
   </separator>
   <separator name="electronic exchange-correlation" >
    <i type="logical" name="LASPH"> T  </i>
    <i type="logical" name="LMETAGGA"> F  </i>
   </separator>
   <separator name="electronic convergence" >
    <i type="int" name="NELM">   200</i>
    <i type="int" name="NELMDL">     0</i>
    <i type="int" name="NELMIN">     2</i>
    <i name="ENINI">    450.00000000</i>
    <separator name="electronic convergence detail" >
     <i type="logical" name="LDIAG"> T  </i>
     <i type="logical" name="LSUBROT"> F  </i>
     <i name="WEIMIN">      0.00000000</i>
     <i name="EBREAK">      0.00000006</i>
     <i name="DEPER">      0.30000000</i>
     <i type="int" name="NRMM">     4</i>
     <i name="TIME">      0.40000000</i>
    </separator>
   </separator>
   <separator name="electronic mixer" >
    <i name="AMIX">      0.40000000</i>
    <i name="BMIX">      1.00000000</i>
    <i name="AMIN">      0.10000000</i>
    <i name="AMIX_MAG">      1.60000000</i>
    <i name="BMIX_MAG">      1.00000000</i>
    <separator name="electronic mixer details" >
     <i type="int" name="IMIX">     4</i>
     <i type="logical" name="MIXFIRST"> F  </i>
     <i type="int" name="MAXMIX">   -45</i>
     <i name="WC">    100.00000000</i>
     <i type="int" name="INIMIX">     1</i>
     <i type="int" name="MIXPRE">     1</i>
     <i type="int" name="MREMOVE">     5</i>
    </separator>
   </separator>
   <separator name="electronic dipolcorrection" >
    <i type="logical" name="LDIPOL"> F  </i>
    <i type="logical" name="LMONO"> F  </i>
    <i type="int" name="IDIPOL">     0</i>
    <i name="EPSILON">      1.00000000</i>
    <v name="DIPOL">   -100.00000000   -100.00000000   -100.00000000</v>
    <i name="EFIELD">      0.00000000</i>
   </separator>
  </separator>
  <separator name="grids" >
   <i type="int" name="NGX">    18</i>
   <i type="int" name="NGY">   180</i>
   <i type="int" name="NGZ">    24</i>
   <i type="int" name="NGXF">    36</i>
   <i type="int" name="NGYF">   360</i>
   <i type="int" name="NGZF">    48</i>
   <i type="logical" name="ADDGRID"> F  </i>
  </separator>
  <separator name="ionic" >
   <i type="int" name="NSW">     0</i>
   <i type="int" name="IBRION">    -1</i>
   <i type="int" name="MDALGO">     0</i>
   <i type="int" name="ISIF">     3</i>
   <i name="PSTRESS">      0.00000000</i>
   <i name="EDIFFG">     -0.02000000</i>
   <i type="int" name="NFREE">     1</i>
   <i name="POTIM">      0.50000000</i>
   <i name="SMASS">     -3.00000000</i>
   <i name="SCALEE">      1.00000000</i>
  </separator>
  <separator name="ionic md" >
   <i name="TEBEG">      0.00010000</i>
   <i name="TEEND">      0.00010000</i>
   <i type="int" name="NBLOCK">     1</i>
   <i type="int" name="KBLOCK">     1</i>
   <i type="int" name="NPACO">   256</i>
   <i name="APACO">     16.00000000</i>
  </separator>
  <separator name="symmetry" >
   <i type="int" name="ISYM">     2</i>
   <i name="SYMPREC">      0.00001000</i>
  </separator>
  <separator name="dos" >
   <i type="int" name="LORBIT">    11</i>
   <v name="RWIGS">     -1.00000000</v>
   <i type="int" name="NEDOS">  2000</i>
   <i name="EMIN">     10.00000000</i>
   <i name="EMAX">    -10.00000000</i>
   <i name="EFERMI">      0.00000000</i>
  </separator>
  <separator name="writing" >
   <i type="int" name="NWRITE">     2</i>
   <i type="logical" name="LWAVE"> T  </i>
   <i type="logical" name="LDOWNSAMPLE"> F  </i>
   <i type="logical" name="LCHARG"> T  </i>
   <i type="logical" name="LPARD"> F  </i>
   <i type="logical" name="LVTOT"> F  </i>
   <i type="logical" name="LVHAR"> T  </i>
   <i type="logical" name="LELF"> F  </i>
   <i type="logical" name="LOPTICS"> F  </i>
   <v name="STM">      0.00000000      0.00000000      0.00000000      0.00000000      0.00000000      0.00000000      0.00000000</v>
  </separator>
  <separator name="performance" >
   <i type="int" name="NPAR">     4</i>
   <i type="int" name="NSIM">     4</i>
   <i type="int" name="NBLK">    -1</i>
   <i type="logical" name="LPLANE"> T  </i>
   <i type="logical" name="LSCALAPACK"> T  </i>
   <i type="logical" name="LSCAAWARE"> F  </i>
   <i type="logical" name="LSCALU"> F  </i>
   <i type="logical" name="LASYNC"> F  </i>
   <i type="logical" name="LORBITALREAL"> F  </i>
  </separator>
  <separator name="miscellaneous" >
   <i type="int" name="IDIOT">     3</i>
   <i type="int" name="ISPECIAL">     0</i>
   <i type="logical" name="LMUSIC"> F  </i>
   <v name="POMASS">     30.97400000</v>
   <v name="DARWINR">      0.00000000</v>
   <v name="DARWINV">      1.00000000</v>
   <i type="logical" name="LCORR"> T  </i>
  </separator>
  <i type="logical" name="GGA_COMPAT"> T  </i>
  <i type="logical" name="LBERRY"> F  </i>
  <i type="int" name="ICORELEVEL">     1</i>
  <i type="int" name="CLNT">     1</i>
  <i type="int" name="CLN">     1</i>
  <i type="int" name="CLL">     0</i>
  <i name="CLZ">      0.00000000</i>
  <i type="logical" name="LDAU"> F  </i>
  <i type="int" name="I_CONSTRAINED_M">     0</i>
  <separator name="electronic exchange-correlation" >
   <i type="string" name="GGA">PE</i>
   <i type="int" name="VOSKOWN">     0</i>
   <i type="logical" name="LHFCALC"> F  </i>
   <i type="string" name="PRECFOCK"></i>
   <i type="logical" name="LSYMGRAD"> F  </i>
   <i type="logical" name="LHFONE"> F  </i>
   <i type="logical" name="LRHFCALC"> F  </i>
   <i type="logical" name="LTHOMAS"> F  </i>
   <i type="logical" name="LMODELHF"> F  </i>
   <i name="ENCUT4O">     -1.00000000</i>
   <i type="int" name="EXXOEP">     0</i>
   <i type="int" name="FOURORBIT">     0</i>
   <i name="AEXX">      0.00000000</i>
   <i name="HFALPHA">      0.00000000</i>
   <i name="MCALPHA">      0.00000000</i>
   <i name="ALDAX">      1.00000000</i>
   <i name="AGGAX">      1.00000000</i>
   <i name="ALDAC">      1.00000000</i>
   <i name="AGGAC">      1.00000000</i>
   <i type="int" name="NKREDX">     1</i>
   <i type="int" name="NKREDY">     1</i>
   <i type="int" name="NKREDZ">     1</i>
   <i type="logical" name="SHIFTRED"> F  </i>
   <i type="logical" name="ODDONLY"> F  </i>
   <i type="logical" name="EVENONLY"> F  </i>
   <i type="int" name="LMAXFOCK">     0</i>
   <i type="int" name="NMAXFOCKAE">     0</i>
   <i type="logical" name="LFOCKAEDFT"> F  </i>
   <i name="HFSCREEN">      0.00000000</i>
   <i name="HFSCREENC">      0.00000000</i>
   <i type="int" name="NBANDSGWLOW">     0</i>
  </separator>
  <separator name="vdW DFT" >
   <i type="logical" name="LUSE_VDW"> F  </i>
   <i name="Zab_VDW">     -0.84910000</i>
   <i name="PARAM1">      0.12340000</i>
   <i name="PARAM2">      1.00000000</i>
   <i name="PARAM3">      0.00000000</i>
  </separator>
  <separator name="model GW" >
   <i type="int" name="MODEL_GW">     0</i>
   <i name="MODEL_EPS0">     23.83979645</i>
   <i name="MODEL_ALPHA">      1.00000000</i>
  </separator>
  <separator name="linear response parameters" >
   <i type="logical" name="LEPSILON"> F  </i>
   <i type="logical" name="LRPA"> F  </i>
   <i type="logical" name="LNABLA"> F  </i>
   <i type="logical" name="LVEL"> F  </i>
   <i type="int" name="KINTER">     0</i>
   <i name="CSHIFT">      0.10000000</i>
   <i name="OMEGAMAX">     -1.00000000</i>
   <i name="DEG_THRESHOLD">      0.00200000</i>
   <i name="RTIME">     -0.10000000</i>
   <i name="WPLASMAI">      0.00000000</i>
   <v name="DFIELD">      0.00000000      0.00000000      0.00000000</v>
   <v name="WPLASMA">      0.00000000      0.00000000      0.00000000      0.00000000      0.00000000      0.00000000      0.00000000      0.00000000      0.00000000</v>
  </separator>
  <separator name="orbital magnetization" >
   <i type="logical" name="NUCIND"> F  </i>
   <v name="MAGPOS">      0.00000000      0.00000000      0.00000000</v>
   <i type="logical" name="LNICSALL"> T  </i>
   <i type="logical" name="ORBITALMAG"> F  </i>
   <i type="logical" name="LMAGBLOCH"> F  </i>
   <i type="logical" name="LCHIMAG"> F  </i>
   <i type="logical" name="LGAUGE"> T  </i>
   <i type="int" name="MAGATOM">     0</i>
   <v name="MAGDIPOL">      0.00000000      0.00000000      0.00000000</v>
   <v name="AVECCONST">      0.00000000      0.00000000      0.00000000</v>
  </separator>
  <separator name="response functions" >
   <i type="logical" name="LADDER"> F  </i>
   <i type="logical" name="LRPAFORCE"> F  </i>
   <i type="logical" name="LFXC"> F  </i>
   <i type="logical" name="LHARTREE"> T  </i>
   <i type="int" name="IBSE">     0</i>
   <v type="int" name="KPOINT">    -1     0     0     0</v>
   <i type="logical" name="LTCTE"> F  </i>
   <i type="logical" name="LTETE"> F  </i>
   <i type="logical" name="LTRIPLET"> F  </i>
   <i type="logical" name="LFXCEPS"> F  </i>
   <i type="logical" name="LFXHEG"> F  </i>
   <i type="int" name="NATURALO">     2</i>
   <i type="logical" name="L2ORDER"> F  </i>
   <i type="logical" name="LMP2LT"> F  </i>
   <i type="logical" name="LUSEW"> F  </i>
   <i name="ENCUTGW">     -2.00000000</i>
   <i name="ENCUTGWSOFT">     -2.00000000</i>
   <i name="ENCUTLF">     -1.00000000</i>
   <i type="int" name="LMAXMP2">    -1</i>
   <i name="SCISSOR">      0.00000000</i>
   <i type="int" name="NOMEGA">     0</i>
   <i type="int" name="NOMEGAR">     0</i>
   <i type="int" name="NBANDSGW">    -1</i>
   <i type="int" name="NBANDSO">    -1</i>
   <i type="int" name="NBANDSV">    -1</i>
   <i type="int" name="NELM">   200</i>
   <i type="int" name="NELMHF">     1</i>
   <i type="int" name="DIM">     3</i>
   <i type="int" name="ANTIRES">     0</i>
   <i name="OMEGAMAX">    -30.00000000</i>
   <i name="OMEGAMIN">    -30.00000000</i>
   <i name="OMEGATL">   -200.00000000</i>
   <i type="int" name="OMEGAGRID">   140</i>
   <i name="CSHIFT">     -0.10000000</i>
   <i type="logical" name="SELFENERGY"> F  </i>
   <i type="logical" name="LSPECTRAL"> F  </i>
   <i type="logical" name="LSPECTRALGW"> F  </i>
   <i type="logical" name="LSINGLES"> F  </i>
   <i type="logical" name="LFERMIGW"> F  </i>
   <i type="logical" name="ODDONLYGW"> F  </i>
   <i type="logical" name="EVENONLYGW"> F  </i>
   <i type="int" name="NKREDLFX">     1</i>
   <i type="int" name="NKREDLFY">     1</i>
   <i type="int" name="NKREDLFZ">     1</i>
   <i type="int" name="MAXMEM">  2800</i>
   <i type="int" name="TELESCOPE">     0</i>
   <i type="int" name="TAUPAR">     1</i>
   <i type="int" name="OMEGAPAR">    -1</i>
   <i name="LAMBDA">      1.00000000</i>
  </separator>
  <separator name="External order field" >
   <i name="OFIELD_KAPPA">      0.00000000</i>
   <v name="OFIELD_K">      0.00000000      0.00000000      0.00000000</v>
   <i name="OFIELD_Q6_NEAR">      0.00000000</i>
   <i name="OFIELD_Q6_FAR">      0.00000000</i>
   <i name="OFIELD_A">      0.00000000</i>
  </separator>
 </parameters>
 <atominfo>
  <atoms>      12 </atoms>
  <types>       1 </types>
  <array name="atoms" >
   <dimension dim="1">ion</dimension>
   <field type="string">element</field>
   <field type="int">atomtype</field>
   <set>
    <rc><c>P </c><c>   1</c></rc>
    <rc><c>P </c><c>   1</c></rc>
    <rc><c>P </c><c>   1</c></rc>
    <rc><c>P </c><c>   1</c></rc>
    <rc><c>P </c><c>   1</c></rc>
    <rc><c>P </c><c>   1</c></rc>
    <rc><c>P </c><c>   1</c></rc>
    <rc><c>P </c><c>   1</c></rc>
    <rc><c>P </c><c>   1</c></rc>
    <rc><c>P </c><c>   1</c></rc>
    <rc><c>P </c><c>   1</c></rc>
    <rc><c>P </c><c>   1</c></rc>
   </set>
  </array>
  <array name="atomtypes" >
   <dimension dim="1">type</dimension>
   <field type="int">atomspertype</field>
   <field type="string">element</field>
   <field>mass</field>
   <field>valence</field>
   <field type="string">pseudopotential</field>
   <set>
    <rc><c>  12</c><c>P </c><c>     30.97400000</c><c>      5.00000000</c><c>  PAW_PBE P 06Sep2000                   </c></rc>
   </set>
  </array>
 </atominfo>
 <structure name="initialpos" >
  <crystal>
   <varray name="basis" >
    <v>       3.34288600       0.00000000       0.00000000 </v>
    <v>       0.00000000      32.60240900       0.00000000 </v>
    <v>       0.00000000       0.00000000       4.37483100 </v>
   </varray>
   <i name="volume">    476.79592902 </i>
   <varray name="rec_basis" >
    <v>       0.29914272       0.00000000       0.00000000 </v>
    <v>       0.00000000       0.03067258       0.00000000 </v>
    <v>       0.00000000       0.00000000       0.22858026 </v>
   </varray>
  </crystal>
  <varray name="positions" >
   <v>       0.00000000       0.30672600       0.91892400 </v>
   <v>       0.50000000       0.30672600       0.58107600 </v>
   <v>       0.00000000       0.37246700       0.08107600 </v>
   <v>       0.50000000       0.37246700       0.41892400 </v>
   <v>       0.00000000       0.46712900       0.91892400 </v>
   <v>       0.50000000       0.46712900       0.58107600 </v>
   <v>       0.00000000       0.53287100       0.08107600 </v>
   <v>       0.50000000       0.53287100       0.41892400 </v>
   <v>       0.00000000       0.62753300       0.91892400 </v>
   <v>       0.50000000       0.62753300       0.58107600 </v>
   <v>       0.00000000       0.69327400       0.08107600 </v>
   <v>       0.50000000       0.69327400       0.41892400 </v>
  </varray>
 </structure>
 <calculation>
  <scstep>
   <time name="dav">    0.69    0.71</time>
   <time name="total">    0.79    0.81</time>
   <energy>
    <i name="alphaZ">     30.28014394 </i>
    <i name="ewald">  14975.37070712 </i>
    <i name="hartreedc"> -16930.57457869 </i>
    <i name="XCdc">     40.42313226 </i>
    <i name="pawpsdc">   1677.12035881 </i>
    <i name="pawaedc">  -1579.18296132 </i>
    <i name="eentropy">     -0.00059285 </i>
    <i name="bandstr">     30.26025804 </i>
    <i name="atom">   2112.49373795 </i>
    <i name="e_fr_energy">    356.19020525 </i>
    <i name="e_wo_entrp">    356.19079810 </i>
    <i name="e_0_energy">    356.19050167 </i>
   </energy>
  </scstep>
  <scstep>
   <time name="dav">    0.84    0.86</time>
   <time name="total">    0.84    0.86</time>
   <energy>
    <i name="e_fr_energy">    -23.39166902 </i>
    <i name="e_wo_entrp">    -23.39110480 </i>
    <i name="e_0_energy">    -23.39138691 </i>
   </energy>
  </scstep>
  <scstep>
   <time name="dav">    0.77    0.78</time>
   <time name="total">    0.77    0.78</time>
   <energy>
    <i name="e_fr_energy">    -62.97328267 </i>
    <i name="e_wo_entrp">    -62.97301401 </i>
    <i name="e_0_energy">    -62.97314834 </i>
   </energy>
  </scstep>
  <scstep>
   <time name="dav">    0.90    0.90</time>
   <time name="total">    0.90    0.90</time>
   <energy>
    <i name="e_fr_energy">    -64.52657309 </i>
    <i name="e_wo_entrp">    -64.52654569 </i>
    <i name="e_0_energy">    -64.52655939 </i>
   </energy>
  </scstep>
  <scstep>
   <time name="dav">    0.92    0.93</time>
   <time name="total">    0.97    0.97</time>
   <energy>
    <i name="e_fr_energy">    -64.56983095 </i>
    <i name="e_wo_entrp">    -64.56978762 </i>
    <i name="e_0_energy">    -64.56980929 </i>
   </energy>
  </scstep>
  <scstep>
   <time name="dav">    0.82    0.82</time>
   <time name="total">    0.95    0.95</time>
   <energy>
    <i name="e_fr_energy">    -64.23504706 </i>
    <i name="e_wo_entrp">    -64.23493065 </i>
    <i name="e_0_energy">    -64.23498885 </i>
   </energy>
  </scstep>
  <scstep>
   <time name="dav">    0.81    0.81</time>
   <time name="total">    0.94    0.94</time>
   <energy>
    <i name="e_fr_energy">    -64.08845343 </i>
    <i name="e_wo_entrp">    -64.08812873 </i>
    <i name="e_0_energy">    -64.08829108 </i>
   </energy>
  </scstep>
  <scstep>
   <time name="dav">    0.82    0.82</time>
   <time name="total">    0.95    0.95</time>
   <energy>
    <i name="e_fr_energy">    -64.08946614 </i>
    <i name="e_wo_entrp">    -64.08912227 </i>
    <i name="e_0_energy">    -64.08929420 </i>
   </energy>
  </scstep>
  <scstep>
   <time name="dav">    0.89    0.89</time>
   <time name="total">    1.02    1.02</time>
   <energy>
    <i name="e_fr_energy">    -64.08916490 </i>
    <i name="e_wo_entrp">    -64.08881670 </i>
    <i name="e_0_energy">    -64.08899080 </i>
   </energy>
  </scstep>
  <scstep>
   <time name="dav">    0.80    0.80</time>
   <time name="total">    0.93    0.93</time>
   <energy>
    <i name="e_fr_energy">    -64.08891694 </i>
    <i name="e_wo_entrp">    -64.08857482 </i>
    <i name="e_0_energy">    -64.08874588 </i>
   </energy>
  </scstep>
  <scstep>
   <time name="dav">    0.83    0.83</time>
   <time name="total">    0.96    0.96</time>
   <energy>
    <i name="e_fr_energy">    -64.08883925 </i>
    <i name="e_wo_entrp">    -64.08849598 </i>
    <i name="e_0_energy">    -64.08866762 </i>
   </energy>
  </scstep>
  <scstep>
   <time name="dav">    0.79    0.80</time>
   <time name="total">    0.92    0.93</time>
   <energy>
    <i name="e_fr_energy">    -64.08891126 </i>
    <i name="e_wo_entrp">    -64.08856867 </i>
    <i name="e_0_energy">    -64.08873997 </i>
   </energy>
  </scstep>
  <scstep>
   <time name="dav">    0.78    0.78</time>
   <time name="total">    0.91    0.91</time>
   <energy>
    <i name="e_fr_energy">    -64.08905139 </i>
    <i name="e_wo_entrp">    -64.08871024 </i>
    <i name="e_0_energy">    -64.08888081 </i>
   </energy>
  </scstep>
  <scstep>
   <time name="dav">    0.65    0.65</time>
   <time name="total">    0.78    0.78</time>
   <energy>
    <i name="e_fr_energy">    -64.08920634 </i>
    <i name="e_wo_entrp">    -64.08886430 </i>
    <i name="e_0_energy">    -64.08903532 </i>
   </energy>
  </scstep>
  <scstep>
   <time name="dav">    0.69    0.69</time>
   <time name="total">    0.82    0.82</time>
   <energy>
    <i name="e_fr_energy">    -64.08942233 </i>
    <i name="e_wo_entrp">    -64.08907951 </i>
    <i name="e_0_energy">    -64.08925092 </i>
   </energy>
  </scstep>
  <scstep>
   <time name="dav">    0.62    0.62</time>
   <time name="total">    0.75    0.75</time>
   <energy>
    <i name="e_fr_energy">    -64.08945102 </i>
    <i name="e_wo_entrp">    -64.08910862 </i>
    <i name="e_0_energy">    -64.08927982 </i>
   </energy>
  </scstep>
  <scstep>
   <time name="dav">    0.63    0.63</time>
   <time name="total">    0.76    0.76</time>
   <energy>
    <i name="e_fr_energy">    -64.08951933 </i>
    <i name="e_wo_entrp">    -64.08917722 </i>
    <i name="e_0_energy">    -64.08934827 </i>
   </energy>
  </scstep>
  <scstep>
   <time name="dav">    0.58    0.58</time>
   <time name="total">    0.75    0.76</time>
   <energy>
    <i name="alphaZ">     30.28014394 </i>
    <i name="ewald">  14975.37070712 </i>
    <i name="hartreedc"> -16966.40868743 </i>
    <i name="XCdc">     43.26904100 </i>
    <i name="pawpsdc">   6362.05373732 </i>
    <i name="pawaedc">  -6265.03250885 </i>
    <i name="eentropy">     -0.00034223 </i>
    <i name="bandstr">   -356.11535765 </i>
    <i name="atom">   2112.49373795 </i>
    <i name="e_fr_energy">    -64.08952883 </i>
    <i name="e_wo_entrp">    -64.08918660 </i>
    <i name="e_0_energy">    -64.08935772 </i>
   </energy>
  </scstep>
  <structure>
   <crystal>
    <varray name="basis" >
     <v>       3.34288600       0.00000000       0.00000000 </v>
     <v>       0.00000000      32.60240900       0.00000000 </v>
     <v>       0.00000000       0.00000000       4.37483100 </v>
    </varray>
    <i name="volume">    476.79592902 </i>
    <varray name="rec_basis" >
     <v>       0.29914272       0.00000000       0.00000000 </v>
     <v>       0.00000000       0.03067258       0.00000000 </v>
     <v>       0.00000000       0.00000000       0.22858026 </v>
    </varray>
   </crystal>
   <varray name="positions" >
    <v>       0.00000000       0.30672600       0.91892400 </v>
    <v>       0.50000000       0.30672600       0.58107600 </v>
    <v>       0.00000000       0.37246700       0.08107600 </v>
    <v>       0.50000000       0.37246700       0.41892400 </v>
    <v>       0.00000000       0.46712900       0.91892400 </v>
    <v>       0.50000000       0.46712900       0.58107600 </v>
    <v>       0.00000000       0.53287100       0.08107600 </v>
    <v>       0.50000000       0.53287100       0.41892400 </v>
    <v>       0.00000000       0.62753300       0.91892400 </v>
    <v>       0.50000000       0.62753300       0.58107600 </v>
    <v>       0.00000000       0.69327400       0.08107600 </v>
    <v>       0.50000000       0.69327400       0.41892400 </v>
   </varray>
  </structure>
  <varray name="forces" >
   <v>       0.00000000      -0.12323814      -0.14810457 </v>
   <v>       0.00000000      -0.12323814       0.14810457 </v>
   <v>       0.00000000      -0.09192372      -0.09645493 </v>
   <v>       0.00000000      -0.09192372       0.09645493 </v>
   <v>       0.00000000      -0.08620218       0.01190753 </v>
   <v>       0.00000000      -0.08620218      -0.01190753 </v>
   <v>       0.00000000       0.08620218      -0.01190753 </v>
   <v>       0.00000000       0.08620218       0.01190753 </v>
   <v>       0.00000000       0.09192372       0.09645493 </v>
   <v>       0.00000000       0.09192372      -0.09645493 </v>
   <v>       0.00000000       0.12323814       0.14810457 </v>
   <v>       0.00000000       0.12323814      -0.14810457 </v>
  </varray>
  <varray name="stress" >
   <v>      -5.48998642       0.00000000       0.00000000 </v>
   <v>       0.00000000      16.66619106       0.00000000 </v>
   <v>       0.00000000      -0.00000000      -0.42528862 </v>
  </varray>
  <energy>
   <i name="e_fr_energy">    -66.18001801 </i>
   <i name="e_wo_entrp">    -66.17984689 </i>
   <i name="e_0_energy">     -0.00034223 </i>
  </energy>
  <time name="totalsc">   17.80   17.89</time>
  <eigenvalues>
   <array>
    <dimension dim="1">band</dimension>
    <dimension dim="2">kpoint</dimension>
    <dimension dim="3">spin</dimension>
    <field>eigene</field>
    <field>occ</field>
    <set>
     <set comment="spin 1">
      <set comment="kpoint 1">
       <r>  -14.9546    1.0000 </r>
       <r>  -14.7681    1.0000 </r>
       <r>  -14.7121    1.0000 </r>
       <r>  -12.4805    1.0000 </r>
       <r>  -12.1663    1.0000 </r>
       <r>  -12.0102    1.0000 </r>
       <r>   -8.7245    1.0000 </r>
       <r>   -8.5538    1.0000 </r>
       <r>   -8.5116    1.0000 </r>
       <r>   -6.0626    1.0000 </r>
       <r>   -5.6255    1.0000 </r>
       <r>   -5.1797    1.0000 </r>
       <r>   -4.7921    1.0000 </r>
       <r>   -4.5859    1.0000 </r>
       <r>   -4.2702    1.0000 </r>
       <r>   -4.1780    1.0000 </r>
       <r>   -4.0406    1.0000 </r>
       <r>   -3.8486    1.0000 </r>
       <r>   -3.4935    1.0000 </r>
       <r>   -3.3272    1.0000 </r>
       <r>   -3.2914    1.0000 </r>
       <r>   -2.0150    1.0000 </r>
       <r>   -1.8322    1.0000 </r>
       <r>   -1.6808    1.0000 </r>
       <r>   -1.6227    1.0000 </r>
       <r>   -1.5649    1.0000 </r>
       <r>   -1.1229    1.0000 </r>
       <r>   -0.5647    1.0000 </r>
       <r>    0.3323    1.0000 </r>
       <r>    0.9002    1.0000 </r>
       <r>    1.0147    0.4750 </r>
       <r>    1.4352    0.0000 </r>
       <r>    1.4935    0.0000 </r>
       <r>    1.6326    0.0000 </r>
       <r>    1.6650    0.0000 </r>
       <r>    1.9266    0.0000 </r>
       <r>    2.6461    0.0000 </r>
       <r>    2.8591    0.0000 </r>
       <r>    2.8964    0.0000 </r>
       <r>    3.6065    0.0000 </r>
      </set>
      <set comment="kpoint 2">
       <r>  -14.7172    1.0000 </r>
       <r>  -14.5311    1.0000 </r>
       <r>  -14.4755    1.0000 </r>
       <r>  -12.2344    1.0000 </r>
       <r>  -11.9200    1.0000 </r>
       <r>  -11.7637    1.0000 </r>
       <r>   -8.9452    1.0000 </r>
       <r>   -8.7744    1.0000 </r>
       <r>   -8.7325    1.0000 </r>
       <r>   -5.8619    1.0000 </r>
       <r>   -5.4291    1.0000 </r>
       <r>   -5.1823    1.0000 </r>
       <r>   -5.0011    1.0000 </r>
       <r>   -4.7149    1.0000 </r>
       <r>   -4.4033    1.0000 </r>
       <r>   -4.3839    1.0000 </r>
       <r>   -4.3739    1.0000 </r>
       <r>   -4.2325    1.0000 </r>
       <r>   -4.1912    1.0000 </r>
       <r>   -3.9810    1.0000 </r>
       <r>   -3.8379    1.0000 </r>
       <r>   -2.6815    1.0000 </r>
       <r>   -2.4286    1.0000 </r>
       <r>   -2.2861    1.0000 </r>
       <r>   -1.9266    1.0000 </r>
       <r>   -1.5588    1.0000 </r>
       <r>   -0.9838    1.0000 </r>
       <r>   -0.6995    1.0000 </r>
       <r>    0.2087    1.0000 </r>
       <r>    1.0093    0.7625 </r>
       <r>    1.1142    0.0000 </r>
       <r>    1.6637    0.0000 </r>
       <r>    1.8130    0.0000 </r>
       <r>    2.5520    0.0000 </r>
       <r>    2.6691    0.0000 </r>
       <r>    2.7086    0.0000 </r>
       <r>    3.1598    0.0000 </r>
       <r>    3.3534    0.0000 </r>
       <r>    3.4566    0.0000 </r>
       <r>    4.0214    0.0000 </r>
      </set>
      <set comment="kpoint 3">
       <r>  -14.0144    1.0000 </r>
       <r>  -13.8294    1.0000 </r>
       <r>  -13.7749    1.0000 </r>
       <r>  -11.5012    1.0000 </r>
       <r>  -11.1859    1.0000 </r>
       <r>  -11.0285    1.0000 </r>
       <r>   -9.8953    1.0000 </r>
       <r>   -9.7210    1.0000 </r>
       <r>   -9.6766    1.0000 </r>
       <r>   -6.7651    1.0000 </r>
       <r>   -6.4055    1.0000 </r>
       <r>   -6.1991    1.0000 </r>
       <r>   -5.2998    1.0000 </r>
       <r>   -5.0711    1.0000 </r>
       <r>   -4.9002    1.0000 </r>
       <r>   -4.8909    1.0000 </r>
       <r>   -4.8631    1.0000 </r>
       <r>   -4.5406    1.0000 </r>
       <r>   -3.8280    1.0000 </r>
       <r>   -3.4474    1.0000 </r>
       <r>   -3.2721    1.0000 </r>
       <r>   -2.9338    1.0000 </r>
       <r>   -2.6134    1.0000 </r>
       <r>   -2.3131    1.0000 </r>
       <r>   -1.9394    1.0000 </r>
       <r>   -1.4474    1.0000 </r>
       <r>   -1.2468    1.0000 </r>
       <r>   -0.8378    1.0000 </r>
       <r>   -0.3949    1.0000 </r>
       <r>    0.3329    1.0000 </r>
       <r>    1.1123    0.0000 </r>
       <r>    1.2308    0.0000 </r>
       <r>    1.4431    0.0000 </r>
       <r>    1.8000    0.0000 </r>
       <r>    2.4268    0.0000 </r>
       <r>    2.6018    0.0000 </r>
       <r>    2.6501    0.0000 </r>
       <r>    3.0166    0.0000 </r>
       <r>    3.0898    0.0000 </r>
       <r>    3.2265    0.0000 </r>
      </set>
      <set comment="kpoint 4">
       <r>  -12.8813    1.0000 </r>
       <r>  -12.6983    1.0000 </r>
       <r>  -12.6460    1.0000 </r>
       <r>  -11.4138    1.0000 </r>
       <r>  -11.2343    1.0000 </r>
       <r>  -11.1854    1.0000 </r>
       <r>  -10.2990    1.0000 </r>
       <r>   -9.9808    1.0000 </r>
       <r>   -9.8201    1.0000 </r>
       <r>   -8.6732    1.0000 </r>
       <r>   -8.3459    1.0000 </r>
       <r>   -8.1753    1.0000 </r>
       <r>   -4.7531    1.0000 </r>
       <r>   -4.6294    1.0000 </r>
       <r>   -4.5840    1.0000 </r>
       <r>   -4.5535    1.0000 </r>
       <r>   -4.3353    1.0000 </r>
       <r>   -4.1994    1.0000 </r>
       <r>   -3.1842    1.0000 </r>
       <r>   -2.9733    1.0000 </r>
       <r>   -2.8020    1.0000 </r>
       <r>   -2.6798    1.0000 </r>
       <r>   -2.5484    1.0000 </r>
       <r>   -2.2640    1.0000 </r>
       <r>   -2.1246    1.0000 </r>
       <r>   -1.9034    1.0000 </r>
       <r>   -1.6699    1.0000 </r>
       <r>   -1.2367    1.0000 </r>
       <r>   -1.1360    1.0000 </r>
       <r>   -0.6619    1.0000 </r>
       <r>    1.2926    0.0000 </r>
       <r>    1.3499    0.0000 </r>
       <r>    1.3537    0.0000 </r>
       <r>    1.6769    0.0000 </r>
       <r>    1.7059    0.0000 </r>
       <r>    1.7300    0.0000 </r>
       <r>    2.0216    0.0000 </r>
       <r>    2.0287    0.0000 </r>
       <r>    2.2831    0.0000 </r>
       <r>    2.6562    0.0000 </r>
      </set>
      <set comment="kpoint 5">
       <r>  -14.7975    1.0000 </r>
       <r>  -14.6136    1.0000 </r>
       <r>  -14.5604    1.0000 </r>
       <r>  -12.5622    1.0000 </r>
       <r>  -12.3028    1.0000 </r>
       <r>  -12.2088    1.0000 </r>
       <r>   -8.9297    1.0000 </r>
       <r>   -8.7879    1.0000 </r>
       <r>   -8.7591    1.0000 </r>
       <r>   -6.3841    1.0000 </r>
       <r>   -6.1474    1.0000 </r>
       <r>   -6.1000    1.0000 </r>
       <r>   -4.6189    1.0000 </r>
       <r>   -4.4784    1.0000 </r>
       <r>   -3.9226    1.0000 </r>
       <r>   -3.7338    1.0000 </r>
       <r>   -3.3688    1.0000 </r>
       <r>   -3.3554    1.0000 </r>
       <r>   -3.3490    1.0000 </r>
       <r>   -3.2055    1.0000 </r>
       <r>   -3.1728    1.0000 </r>
       <r>   -1.8852    1.0000 </r>
       <r>   -1.6944    1.0000 </r>
       <r>   -1.6557    1.0000 </r>
       <r>   -1.3815    1.0000 </r>
       <r>   -1.0042    1.0000 </r>
       <r>   -0.9020    1.0000 </r>
       <r>   -0.6272    1.0000 </r>
       <r>   -0.4796    1.0000 </r>
       <r>    0.1233    1.0000 </r>
       <r>    1.6432    0.0000 </r>
       <r>    1.7297    0.0000 </r>
       <r>    1.8314    0.0000 </r>
       <r>    1.9316    0.0000 </r>
       <r>    2.2100    0.0000 </r>
       <r>    2.3797    0.0000 </r>
       <r>    2.4291    0.0000 </r>
       <r>    2.5805    0.0000 </r>
       <r>    2.6052    0.0000 </r>
       <r>    3.3672    0.0000 </r>
      </set>
      <set comment="kpoint 6">
       <r>  -14.5616    1.0000 </r>
       <r>  -14.3781    1.0000 </r>
       <r>  -14.3253    1.0000 </r>
       <r>  -12.3226    1.0000 </r>
       <r>  -12.0654    1.0000 </r>
       <r>  -11.9743    1.0000 </r>
       <r>   -9.0228    1.0000 </r>
       <r>   -8.8854    1.0000 </r>
       <r>   -8.8642    1.0000 </r>
       <r>   -6.3479    1.0000 </r>
       <r>   -6.0385    1.0000 </r>
       <r>   -6.0285    1.0000 </r>
       <r>   -4.8906    1.0000 </r>
       <r>   -4.8329    1.0000 </r>
       <r>   -4.6161    1.0000 </r>
       <r>   -4.4591    1.0000 </r>
       <r>   -4.2222    1.0000 </r>
       <r>   -4.0077    1.0000 </r>
       <r>   -3.2415    1.0000 </r>
       <r>   -3.1126    1.0000 </r>
       <r>   -2.9458    1.0000 </r>
       <r>   -2.7776    1.0000 </r>
       <r>   -2.7132    1.0000 </r>
       <r>   -2.7084    1.0000 </r>
       <r>   -1.3728    1.0000 </r>
       <r>   -1.1053    1.0000 </r>
       <r>   -0.9346    1.0000 </r>
       <r>   -0.6271    1.0000 </r>
       <r>   -0.4690    1.0000 </r>
       <r>    0.2019    1.0000 </r>
       <r>    1.7812    0.0000 </r>
       <r>    2.1293    0.0000 </r>
       <r>    2.3347    0.0000 </r>
       <r>    2.5462    0.0000 </r>
       <r>    2.6431    0.0000 </r>
       <r>    2.7380    0.0000 </r>
       <r>    3.2828    0.0000 </r>
       <r>    3.4380    0.0000 </r>
       <r>    3.4433    0.0000 </r>
       <r>    4.0505    0.0000 </r>
      </set>
      <set comment="kpoint 7">
       <r>  -13.8651    1.0000 </r>
       <r>  -13.6826    1.0000 </r>
       <r>  -13.6308    1.0000 </r>
       <r>  -11.6277    1.0000 </r>
       <r>  -11.3869    1.0000 </r>
       <r>  -11.3183    1.0000 </r>
       <r>   -9.6779    1.0000 </r>
       <r>   -9.5465    1.0000 </r>
       <r>   -9.5323    1.0000 </r>
       <r>   -7.0259    1.0000 </r>
       <r>   -6.6886    1.0000 </r>
       <r>   -6.5164    1.0000 </r>
       <r>   -5.6465    1.0000 </r>
       <r>   -5.5422    1.0000 </r>
       <r>   -5.4243    1.0000 </r>
       <r>   -4.9885    1.0000 </r>
       <r>   -4.6692    1.0000 </r>
       <r>   -4.6485    1.0000 </r>
       <r>   -3.2472    1.0000 </r>
       <r>   -3.1962    1.0000 </r>
       <r>   -2.9964    1.0000 </r>
       <r>   -2.9003    1.0000 </r>
       <r>   -2.6841    1.0000 </r>
       <r>   -2.5720    1.0000 </r>
       <r>   -1.8491    1.0000 </r>
       <r>   -1.5148    1.0000 </r>
       <r>   -1.4222    1.0000 </r>
       <r>   -1.0083    1.0000 </r>
       <r>   -0.6145    1.0000 </r>
       <r>    0.0366    1.0000 </r>
       <r>    1.7620    0.0000 </r>
       <r>    1.8589    0.0000 </r>
       <r>    2.1760    0.0000 </r>
       <r>    2.2257    0.0000 </r>
       <r>    2.2691    0.0000 </r>
       <r>    2.5236    0.0000 </r>
       <r>    2.6609    0.0000 </r>
       <r>    2.6763    0.0000 </r>
       <r>    2.7312    0.0000 </r>
       <r>    3.5873    0.0000 </r>
      </set>
      <set comment="kpoint 8">
       <r>  -12.7532    1.0000 </r>
       <r>  -12.5724    1.0000 </r>
       <r>  -12.5223    1.0000 </r>
       <r>  -11.4132    1.0000 </r>
       <r>  -11.2400    1.0000 </r>
       <r>  -11.2024    1.0000 </r>
       <r>  -10.2040    1.0000 </r>
       <r>   -9.9220    1.0000 </r>
       <r>   -9.7961    1.0000 </r>
       <r>   -8.7302    1.0000 </r>
       <r>   -8.4326    1.0000 </r>
       <r>   -8.2965    1.0000 </r>
       <r>   -5.2347    1.0000 </r>
       <r>   -5.1163    1.0000 </r>
       <r>   -5.0272    1.0000 </r>
       <r>   -4.5566    1.0000 </r>
       <r>   -4.3876    1.0000 </r>
       <r>   -4.3633    1.0000 </r>
       <r>   -3.6159    1.0000 </r>
       <r>   -3.4660    1.0000 </r>
       <r>   -3.2042    1.0000 </r>
       <r>   -3.0033    1.0000 </r>
       <r>   -2.7039    1.0000 </r>
       <r>   -2.6956    1.0000 </r>
       <r>   -2.1902    1.0000 </r>
       <r>   -1.8322    1.0000 </r>
       <r>   -1.4200    1.0000 </r>
       <r>   -1.1027    1.0000 </r>
       <r>   -0.7715    1.0000 </r>
       <r>   -0.3448    1.0000 </r>
       <r>    1.2215    0.0000 </r>
       <r>    1.4403    0.0000 </r>
       <r>    1.7152    0.0000 </r>
       <r>    1.8719    0.0000 </r>
       <r>    2.0639    0.0000 </r>
       <r>    2.1771    0.0000 </r>
       <r>    2.5979    0.0000 </r>
       <r>    2.7737    0.0000 </r>
       <r>    2.9453    0.0000 </r>
       <r>    3.1577    0.0000 </r>
      </set>
      <set comment="kpoint 9">
       <r>  -14.3431    1.0000 </r>
       <r>  -14.1690    1.0000 </r>
       <r>  -14.1265    1.0000 </r>
       <r>  -12.9426    1.0000 </r>
       <r>  -12.7819    1.0000 </r>
       <r>  -12.7805    1.0000 </r>
       <r>   -9.1360    1.0000 </r>
       <r>   -8.8475    1.0000 </r>
       <r>   -8.6662    1.0000 </r>
       <r>   -7.6917    1.0000 </r>
       <r>   -7.2838    1.0000 </r>
       <r>   -7.0236    1.0000 </r>
       <r>   -4.5272    1.0000 </r>
       <r>   -3.7985    1.0000 </r>
       <r>   -3.0201    1.0000 </r>
       <r>   -3.0090    1.0000 </r>
       <r>   -2.8673    1.0000 </r>
       <r>   -2.8450    1.0000 </r>
       <r>   -2.7119    1.0000 </r>
       <r>   -2.3664    1.0000 </r>
       <r>   -2.1484    1.0000 </r>
       <r>   -2.1050    1.0000 </r>
       <r>   -1.9718    1.0000 </r>
       <r>   -1.9496    1.0000 </r>
       <r>   -1.9452    1.0000 </r>
       <r>   -1.6010    1.0000 </r>
       <r>   -0.8770    1.0000 </r>
       <r>    0.0163    1.0000 </r>
       <r>    0.1171    1.0000 </r>
       <r>    0.1961    1.0000 </r>
       <r>    1.7336    0.0000 </r>
       <r>    1.8851    0.0000 </r>
       <r>    1.9676    0.0000 </r>
       <r>    2.0597    0.0000 </r>
       <r>    2.2187    0.0000 </r>
       <r>    2.2452    0.0000 </r>
       <r>    2.7849    0.0000 </r>
       <r>    3.1033    0.0000 </r>
       <r>    3.2737    0.0000 </r>
       <r>    3.3113    0.0000 </r>
      </set>
      <set comment="kpoint 10">
       <r>  -14.1119    1.0000 </r>
       <r>  -13.9379    1.0000 </r>
       <r>  -13.8955    1.0000 </r>
       <r>  -12.7168    1.0000 </r>
       <r>  -12.5575    1.0000 </r>
       <r>  -12.5572    1.0000 </r>
       <r>   -9.0801    1.0000 </r>
       <r>   -8.8040    1.0000 </r>
       <r>   -8.6417    1.0000 </r>
       <r>   -7.5941    1.0000 </r>
       <r>   -7.1951    1.0000 </r>
       <r>   -6.9435    1.0000 </r>
       <r>   -4.6303    1.0000 </r>
       <r>   -4.6053    1.0000 </r>
       <r>   -4.4323    1.0000 </r>
       <r>   -4.2447    1.0000 </r>
       <r>   -3.6802    1.0000 </r>
       <r>   -3.5935    1.0000 </r>
       <r>   -3.3408    1.0000 </r>
       <r>   -3.2632    1.0000 </r>
       <r>   -2.8267    1.0000 </r>
       <r>   -2.5748    1.0000 </r>
       <r>   -1.9046    1.0000 </r>
       <r>   -1.8899    1.0000 </r>
       <r>   -1.3925    1.0000 </r>
       <r>   -1.2534    1.0000 </r>
       <r>   -0.7513    1.0000 </r>
       <r>   -0.5090    1.0000 </r>
       <r>   -0.4266    1.0000 </r>
       <r>   -0.3792    1.0000 </r>
       <r>    2.4933    0.0000 </r>
       <r>    2.7689    0.0000 </r>
       <r>    2.8056    0.0000 </r>
       <r>    3.0118    0.0000 </r>
       <r>    3.0309    0.0000 </r>
       <r>    3.2892    0.0000 </r>
       <r>    3.3186    0.0000 </r>
       <r>    3.3993    0.0000 </r>
       <r>    3.6145    0.0000 </r>
       <r>    3.6276    0.0000 </r>
      </set>
      <set comment="kpoint 11">
       <r>  -13.4352    1.0000 </r>
       <r>  -13.2615    1.0000 </r>
       <r>  -13.2194    1.0000 </r>
       <r>  -12.0828    1.0000 </r>
       <r>  -11.9332    1.0000 </r>
       <r>  -11.9293    1.0000 </r>
       <r>   -9.2676    1.0000 </r>
       <r>   -9.0518    1.0000 </r>
       <r>   -8.9725    1.0000 </r>
       <r>   -7.7412    1.0000 </r>
       <r>   -7.4224    1.0000 </r>
       <r>   -7.2670    1.0000 </r>
       <r>   -5.9277    1.0000 </r>
       <r>   -5.7798    1.0000 </r>
       <r>   -5.6861    1.0000 </r>
       <r>   -5.1053    1.0000 </r>
       <r>   -4.9089    1.0000 </r>
       <r>   -4.9047    1.0000 </r>
       <r>   -3.7084    1.0000 </r>
       <r>   -3.3100    1.0000 </r>
       <r>   -3.1811    1.0000 </r>
       <r>   -2.6261    1.0000 </r>
       <r>   -2.3899    1.0000 </r>
       <r>   -2.3646    1.0000 </r>
       <r>   -1.7993    1.0000 </r>
       <r>   -1.5817    1.0000 </r>
       <r>   -1.3408    1.0000 </r>
       <r>   -1.1298    1.0000 </r>
       <r>   -0.8687    1.0000 </r>
       <r>   -0.3034    1.0000 </r>
       <r>    1.9940    0.0000 </r>
       <r>    2.2911    0.0000 </r>
       <r>    2.4361    0.0000 </r>
       <r>    2.8177    0.0000 </r>
       <r>    2.8592    0.0000 </r>
       <r>    2.9726    0.0000 </r>
       <r>    3.5563    0.0000 </r>
       <r>    3.7554    0.0000 </r>
       <r>    3.8234    0.0000 </r>
       <r>    4.2277    0.0000 </r>
      </set>
      <set comment="kpoint 12">
       <r>  -12.3990    1.0000 </r>
       <r>  -12.2250    1.0000 </r>
       <r>  -12.1821    1.0000 </r>
       <r>  -11.5409    1.0000 </r>
       <r>  -11.3770    1.0000 </r>
       <r>  -11.3528    1.0000 </r>
       <r>   -9.9044    1.0000 </r>
       <r>   -9.6904    1.0000 </r>
       <r>   -9.6332    1.0000 </r>
       <r>   -8.9755    1.0000 </r>
       <r>   -8.7440    1.0000 </r>
       <r>   -8.6782    1.0000 </r>
       <r>   -5.7101    1.0000 </r>
       <r>   -5.5047    1.0000 </r>
       <r>   -5.3439    1.0000 </r>
       <r>   -4.8402    1.0000 </r>
       <r>   -4.5958    1.0000 </r>
       <r>   -4.5572    1.0000 </r>
       <r>   -4.4903    1.0000 </r>
       <r>   -4.2453    1.0000 </r>
       <r>   -3.9943    1.0000 </r>
       <r>   -3.6227    1.0000 </r>
       <r>   -3.3421    1.0000 </r>
       <r>   -3.2428    1.0000 </r>
       <r>   -2.2951    1.0000 </r>
       <r>   -1.7374    1.0000 </r>
       <r>   -1.4492    1.0000 </r>
       <r>   -0.9366    1.0000 </r>
       <r>   -0.6345    1.0000 </r>
       <r>   -0.1072    1.0000 </r>
       <r>    2.1091    0.0000 </r>
       <r>    2.2271    0.0000 </r>
       <r>    2.3247    0.0000 </r>
       <r>    2.8581    0.0000 </r>
       <r>    2.9556    0.0000 </r>
       <r>    3.1918    0.0000 </r>
       <r>    3.2658    0.0000 </r>
       <r>    3.3219    0.0000 </r>
       <r>    3.4865    0.0000 </r>
       <r>    3.9868    0.0000 </r>
      </set>
      <set comment="kpoint 13">
       <r>  -13.6584    1.0000 </r>
       <r>  -13.6584    1.0000 </r>
       <r>  -13.5515    1.0000 </r>
       <r>  -13.5515    1.0000 </r>
       <r>  -13.4301    1.0000 </r>
       <r>  -13.4301    1.0000 </r>
       <r>   -8.6933    1.0000 </r>
       <r>   -8.6933    1.0000 </r>
       <r>   -8.2983    1.0000 </r>
       <r>   -8.2983    1.0000 </r>
       <r>   -8.0237    1.0000 </r>
       <r>   -8.0237    1.0000 </r>
       <r>   -3.7770    1.0000 </r>
       <r>   -3.7770    1.0000 </r>
       <r>   -2.9088    1.0000 </r>
       <r>   -2.9088    1.0000 </r>
       <r>   -2.5373    1.0000 </r>
       <r>   -2.5373    1.0000 </r>
       <r>   -2.4572    1.0000 </r>
       <r>   -2.4572    1.0000 </r>
       <r>   -2.3233    1.0000 </r>
       <r>   -2.3233    1.0000 </r>
       <r>   -2.0702    1.0000 </r>
       <r>   -2.0702    1.0000 </r>
       <r>   -0.7127    1.0000 </r>
       <r>   -0.7127    1.0000 </r>
       <r>   -0.5818    1.0000 </r>
       <r>   -0.5818    1.0000 </r>
       <r>   -0.5315    1.0000 </r>
       <r>   -0.5315    1.0000 </r>
       <r>    1.9143    0.0000 </r>
       <r>    1.9143    0.0000 </r>
       <r>    2.2350    0.0000 </r>
       <r>    2.2350    0.0000 </r>
       <r>    2.4037    0.0000 </r>
       <r>    2.4037    0.0000 </r>
       <r>    3.3259    0.0000 </r>
       <r>    3.3260    0.0000 </r>
       <r>    3.5480    0.0000 </r>
       <r>    3.5571    0.0000 </r>
      </set>
      <set comment="kpoint 14">
       <r>  -13.4336    1.0000 </r>
       <r>  -13.4336    1.0000 </r>
       <r>  -13.3254    1.0000 </r>
       <r>  -13.3254    1.0000 </r>
       <r>  -13.2056    1.0000 </r>
       <r>  -13.2056    1.0000 </r>
       <r>   -8.5845    1.0000 </r>
       <r>   -8.5845    1.0000 </r>
       <r>   -8.2026    1.0000 </r>
       <r>   -8.2026    1.0000 </r>
       <r>   -7.9461    1.0000 </r>
       <r>   -7.9461    1.0000 </r>
       <r>   -4.1002    1.0000 </r>
       <r>   -4.1002    1.0000 </r>
       <r>   -4.0116    1.0000 </r>
       <r>   -4.0116    1.0000 </r>
       <r>   -3.9123    1.0000 </r>
       <r>   -3.9123    1.0000 </r>
       <r>   -3.5568    1.0000 </r>
       <r>   -3.5568    1.0000 </r>
       <r>   -2.7572    1.0000 </r>
       <r>   -2.7572    1.0000 </r>
       <r>   -2.0487    1.0000 </r>
       <r>   -2.0487    1.0000 </r>
       <r>   -0.6545    1.0000 </r>
       <r>   -0.6545    1.0000 </r>
       <r>   -0.5034    1.0000 </r>
       <r>   -0.5034    1.0000 </r>
       <r>   -0.4790    1.0000 </r>
       <r>   -0.4790    1.0000 </r>
       <r>    2.6878    0.0000 </r>
       <r>    2.6878    0.0000 </r>
       <r>    2.9187    0.0000 </r>
       <r>    2.9187    0.0000 </r>
       <r>    2.9794    0.0000 </r>
       <r>    2.9794    0.0000 </r>
       <r>    3.2606    0.0000 </r>
       <r>    3.2606    0.0000 </r>
       <r>    3.8914    0.0000 </r>
       <r>    3.8914    0.0000 </r>
      </set>
      <set comment="kpoint 15">
       <r>  -12.7890    1.0000 </r>
       <r>  -12.7890    1.0000 </r>
       <r>  -12.6746    1.0000 </r>
       <r>  -12.6746    1.0000 </r>
       <r>  -12.5619    1.0000 </r>
       <r>  -12.5619    1.0000 </r>
       <r>   -8.5928    1.0000 </r>
       <r>   -8.5928    1.0000 </r>
       <r>   -8.3024    1.0000 </r>
       <r>   -8.3024    1.0000 </r>
       <r>   -8.1581    1.0000 </r>
       <r>   -8.1581    1.0000 </r>
       <r>   -5.6618    1.0000 </r>
       <r>   -5.6618    1.0000 </r>
       <r>   -5.4880    1.0000 </r>
       <r>   -5.4880    1.0000 </r>
       <r>   -5.3714    1.0000 </r>
       <r>   -5.3714    1.0000 </r>
       <r>   -3.3050    1.0000 </r>
       <r>   -3.3050    1.0000 </r>
       <r>   -2.9126    1.0000 </r>
       <r>   -2.9126    1.0000 </r>
       <r>   -2.7126    1.0000 </r>
       <r>   -2.7126    1.0000 </r>
       <r>   -1.5944    1.0000 </r>
       <r>   -1.5944    1.0000 </r>
       <r>   -1.3218    1.0000 </r>
       <r>   -1.3218    1.0000 </r>
       <r>   -0.7242    1.0000 </r>
       <r>   -0.7242    1.0000 </r>
       <r>    2.9500    0.0000 </r>
       <r>    2.9500    0.0000 </r>
       <r>    3.3205    0.0000 </r>
       <r>    3.3205    0.0000 </r>
       <r>    3.4774    0.0000 </r>
       <r>    3.4774    0.0000 </r>
       <r>    3.7771    0.0000 </r>
       <r>    3.7771    0.0000 </r>
       <r>    3.9729    0.0000 </r>
       <r>    3.9835    0.0000 </r>
      </set>
      <set comment="kpoint 16">
       <r>  -11.9257    1.0000 </r>
       <r>  -11.9257    1.0000 </r>
       <r>  -11.7820    1.0000 </r>
       <r>  -11.7820    1.0000 </r>
       <r>  -11.7050    1.0000 </r>
       <r>  -11.7050    1.0000 </r>
       <r>   -9.4371    1.0000 </r>
       <r>   -9.4371    1.0000 </r>
       <r>   -9.2563    1.0000 </r>
       <r>   -9.2563    1.0000 </r>
       <r>   -9.1932    1.0000 </r>
       <r>   -9.1932    1.0000 </r>
       <r>   -5.5520    1.0000 </r>
       <r>   -5.5520    1.0000 </r>
       <r>   -5.2678    1.0000 </r>
       <r>   -5.2678    1.0000 </r>
       <r>   -5.0576    1.0000 </r>
       <r>   -5.0576    1.0000 </r>
       <r>   -4.2990    1.0000 </r>
       <r>   -4.2990    1.0000 </r>
       <r>   -4.0014    1.0000 </r>
       <r>   -4.0014    1.0000 </r>
       <r>   -3.8588    1.0000 </r>
       <r>   -3.8588    1.0000 </r>
       <r>   -2.0458    1.0000 </r>
       <r>   -2.0458    1.0000 </r>
       <r>   -1.1921    1.0000 </r>
       <r>   -1.1921    1.0000 </r>
       <r>   -0.3328    1.0000 </r>
       <r>   -0.3328    1.0000 </r>
       <r>    2.3253    0.0000 </r>
       <r>    2.3253    0.0000 </r>
       <r>    2.8604    0.0000 </r>
       <r>    2.8604    0.0000 </r>
       <r>    3.0549    0.0000 </r>
       <r>    3.0549    0.0000 </r>
       <r>    4.4451    0.0000 </r>
       <r>    4.4470    0.0000 </r>
       <r>    4.5299    0.0000 </r>
       <r>    4.5535    0.0000 </r>
      </set>
     </set>
    </set>
   </array>
  </eigenvalues>
  <separator name="orbital magnetization" >
   <v name="MAGDIPOLOUT">      0.00000000      0.00000000      0.00000000</v>
  </separator>
  <dos>
   <i name="efermi">      1.01430392 </i>
   <total>
    <array>
     <dimension dim="1">gridpoints</dimension>
     <dimension dim="2">spin</dimension>
     <field>energy</field>
     <field>total</field>
     <field>integrated</field>
     <set>
      <set comment="spin 1">
       <r>   -15.9300     0.0000     0.0000 </r>
       <r>   -15.9192     0.0000     0.0000 </r>
       <r>   -15.9085     0.0000     0.0000 </r>
       <r>   -15.8978     0.0000     0.0000 </r>
       <r>   -15.8870     0.0000     0.0000 </r>
       <r>   -15.8763     0.0000     0.0000 </r>
       <r>   -15.8656     0.0000     0.0000 </r>
       <r>   -15.8548     0.0000     0.0000 </r>
       <r>   -15.8441     0.0000     0.0000 </r>
       <r>   -15.8334     0.0000     0.0000 </r>
       <r>   -15.8226     0.0000     0.0000 </r>
       <r>   -15.8119     0.0000     0.0000 </r>
       <r>   -15.8012     0.0000     0.0000 </r>
       <r>   -15.7904     0.0000     0.0000 </r>
       <r>   -15.7797     0.0000     0.0000 </r>
       <r>   -15.7689     0.0000     0.0000 </r>
       <r>   -15.7582     0.0000     0.0000 </r>
       <r>   -15.7475     0.0000     0.0000 </r>
       <r>   -15.7367     0.0000     0.0000 </r>
       <r>   -15.7260     0.0000     0.0000 </r>
       <r>   -15.7153     0.0000     0.0000 </r>
       <r>   -15.7045     0.0000     0.0000 </r>
       <r>   -15.6938     0.0000     0.0000 </r>
       <r>   -15.6831     0.0000     0.0000 </r>
       <r>   -15.6723     0.0000     0.0000 </r>
       <r>   -15.6616     0.0000     0.0000 </r>
       <r>   -15.6509     0.0000     0.0000 </r>
       <r>   -15.6401     0.0000     0.0000 </r>
       <r>   -15.6294     0.0000     0.0000 </r>
       <r>   -15.6187     0.0000     0.0000 </r>
       <r>   -15.6079     0.0000     0.0000 </r>
       <r>   -15.5972     0.0000     0.0000 </r>
       <r>   -15.5865     0.0000     0.0000 </r>
       <r>   -15.5757     0.0000     0.0000 </r>
       <r>   -15.5650     0.0000     0.0000 </r>
       <r>   -15.5543     0.0000     0.0000 </r>
       <r>   -15.5435     0.0000     0.0000 </r>
       <r>   -15.5328     0.0000     0.0000 </r>
       <r>   -15.5220     0.0000     0.0000 </r>
       <r>   -15.5113     0.0000     0.0000 </r>
       <r>   -15.5006     0.0000     0.0000 </r>
       <r>   -15.4898     0.0000     0.0000 </r>
       <r>   -15.4791     0.0000     0.0000 </r>
       <r>   -15.4684     0.0000     0.0000 </r>
       <r>   -15.4576     0.0000     0.0000 </r>
       <r>   -15.4469     0.0000     0.0000 </r>
       <r>   -15.4362     0.0000     0.0000 </r>
       <r>   -15.4254     0.0000     0.0000 </r>
       <r>   -15.4147     0.0000     0.0000 </r>
       <r>   -15.4040     0.0000     0.0000 </r>
       <r>   -15.3932     0.0000     0.0000 </r>
       <r>   -15.3825     0.0000     0.0000 </r>
       <r>   -15.3718     0.0000     0.0000 </r>
       <r>   -15.3610     0.0000     0.0000 </r>
       <r>   -15.3503     0.0000     0.0000 </r>
       <r>   -15.3396     0.0000     0.0000 </r>
       <r>   -15.3288     0.0000     0.0000 </r>
       <r>   -15.3181     0.0000     0.0000 </r>
       <r>   -15.3074     0.0000     0.0000 </r>
       <r>   -15.2966     0.0000     0.0000 </r>
       <r>   -15.2859     0.0000     0.0000 </r>
       <r>   -15.2751     0.0000     0.0000 </r>
       <r>   -15.2644     0.0000     0.0000 </r>
       <r>   -15.2537     0.0000     0.0000 </r>
       <r>   -15.2429     0.0000     0.0000 </r>
       <r>   -15.2322     0.0000     0.0000 </r>
       <r>   -15.2215     0.0000     0.0000 </r>
       <r>   -15.2107     0.0000     0.0000 </r>
       <r>   -15.2000     0.0000     0.0000 </r>
       <r>   -15.1893     0.0000     0.0000 </r>
       <r>   -15.1785     0.0000     0.0000 </r>
       <r>   -15.1678     0.0000     0.0000 </r>
       <r>   -15.1571     0.0000     0.0000 </r>
       <r>   -15.1463     0.0000     0.0000 </r>
       <r>   -15.1356     0.0000     0.0000 </r>
       <r>   -15.1249     0.0000     0.0000 </r>
       <r>   -15.1141     0.0000     0.0000 </r>
       <r>   -15.1034     0.0000     0.0000 </r>
       <r>   -15.0927     0.0000     0.0000 </r>
       <r>   -15.0819     0.0000     0.0000 </r>
       <r>   -15.0712     0.0000     0.0000 </r>
       <r>   -15.0605     0.0000     0.0000 </r>
       <r>   -15.0497     0.0000     0.0000 </r>
       <r>   -15.0390     0.0000     0.0000 </r>
       <r>   -15.0282     0.0000     0.0000 </r>
       <r>   -15.0175     0.0000     0.0000 </r>
       <r>   -15.0068     0.0000     0.0000 </r>
       <r>   -14.9960     0.0000     0.0000 </r>
       <r>   -14.9853     0.0000     0.0000 </r>
       <r>   -14.9746     0.0103     0.0001 </r>
       <r>   -14.9638     0.4107     0.0045 </r>
       <r>   -14.9531     2.1607     0.0277 </r>
       <r>   -14.9424     1.6668     0.0456 </r>
       <r>   -14.9316     0.1848     0.0476 </r>
       <r>   -14.9209     0.0026     0.0476 </r>
       <r>   -14.9102     0.0000     0.0476 </r>
       <r>   -14.8994     0.0000     0.0476 </r>
       <r>   -14.8887     0.0000     0.0476 </r>
       <r>   -14.8780     0.0000     0.0476 </r>
       <r>   -14.8672     0.0000     0.0476 </r>
       <r>   -14.8565     0.0000     0.0476 </r>
       <r>   -14.8458     0.0000     0.0476 </r>
       <r>   -14.8350     0.0000     0.0476 </r>
       <r>   -14.8243     0.0007     0.0476 </r>
       <r>   -14.8136     0.1004     0.0487 </r>
       <r>   -14.8028     1.8855     0.0689 </r>
       <r>   -14.7921     4.9005     0.1215 </r>
       <r>   -14.7813     2.0196     0.1432 </r>
       <r>   -14.7706     1.5692     0.1601 </r>
       <r>   -14.7599     2.2901     0.1847 </r>
       <r>   -14.7491     0.5257     0.1903 </r>
       <r>   -14.7384     0.0287     0.1906 </r>
       <r>   -14.7277     0.6665     0.1978 </r>
       <r>   -14.7169     4.9956     0.2514 </r>
       <r>   -14.7062     6.2115     0.3181 </r>
       <r>   -14.6955     1.3716     0.3328 </r>
       <r>   -14.6847     0.0501     0.3333 </r>
       <r>   -14.6740     0.0003     0.3333 </r>
       <r>   -14.6633     0.0000     0.3333 </r>
       <r>   -14.6525     0.0000     0.3333 </r>
       <r>   -14.6418     0.0003     0.3333 </r>
       <r>   -14.6311     0.0593     0.3340 </r>
       <r>   -14.6203     1.4493     0.3495 </r>
       <r>   -14.6096     4.8231     0.4013 </r>
       <r>   -14.5989     2.3745     0.4268 </r>
       <r>   -14.5881     0.1661     0.4286 </r>
       <r>   -14.5774     0.3015     0.4318 </r>
       <r>   -14.5667     5.6110     0.4920 </r>
       <r>   -14.5559    14.6592     0.6494 </r>
       <r>   -14.5452     5.9333     0.7131 </r>
       <r>   -14.5344     2.9288     0.7445 </r>
       <r>   -14.5237     4.7394     0.7954 </r>
       <r>   -14.5130     1.2677     0.8090 </r>
       <r>   -14.5022     0.0465     0.8095 </r>
       <r>   -14.4915     0.1036     0.8106 </r>
       <r>   -14.4808     1.9128     0.8312 </r>
       <r>   -14.4700     4.8987     0.8838 </r>
       <r>   -14.4593     1.8583     0.9037 </r>
       <r>   -14.4486     0.0974     0.9048 </r>
       <r>   -14.4378     0.0006     0.9048 </r>
       <r>   -14.4271     0.0000     0.9048 </r>
       <r>   -14.4164     0.0000     0.9048 </r>
       <r>   -14.4056     0.0009     0.9048 </r>
       <r>   -14.3949     0.1533     0.9064 </r>
       <r>   -14.3842     3.3010     0.9419 </r>
       <r>   -14.3734     9.7565     1.0466 </r>
       <r>   -14.3627     4.2944     1.0927 </r>
       <r>   -14.3520     1.1690     1.1052 </r>
       <r>   -14.3412     4.6432     1.1551 </r>
       <r>   -14.3305     7.0413     1.2307 </r>
       <r>   -14.3198    10.1231     1.3393 </r>
       <r>   -14.3090     3.6846     1.3789 </r>
       <r>   -14.2983     0.1910     1.3809 </r>
       <r>   -14.2875     0.0012     1.3810 </r>
       <r>   -14.2768     0.0000     1.3810 </r>
       <r>   -14.2661     0.0000     1.3810 </r>
       <r>   -14.2553     0.0000     1.3810 </r>
       <r>   -14.2446     0.0000     1.3810 </r>
       <r>   -14.2339     0.0000     1.3810 </r>
       <r>   -14.2231     0.0000     1.3810 </r>
       <r>   -14.2124     0.0000     1.3810 </r>
       <r>   -14.2017     0.0000     1.3810 </r>
       <r>   -14.1909     0.0084     1.3810 </r>
       <r>   -14.1802     0.4889     1.3863 </r>
       <r>   -14.1695     3.6887     1.4259 </r>
       <r>   -14.1587     4.0304     1.4692 </r>
       <r>   -14.1480     0.6524     1.4762 </r>
       <r>   -14.1373     0.5666     1.4822 </r>
       <r>   -14.1265     4.1751     1.5271 </r>
       <r>   -14.1158     8.6923     1.6204 </r>
       <r>   -14.1051    10.2026     1.7299 </r>
       <r>   -14.0943     2.8664     1.7607 </r>
       <r>   -14.0836     0.1152     1.7619 </r>
       <r>   -14.0729     0.0006     1.7619 </r>
       <r>   -14.0621     0.0000     1.7619 </r>
       <r>   -14.0514     0.0000     1.7619 </r>
       <r>   -14.0406     0.0009     1.7619 </r>
       <r>   -14.0299     0.1241     1.7632 </r>
       <r>   -14.0192     2.0867     1.7856 </r>
       <r>   -14.0084     4.8853     1.8381 </r>
       <r>   -13.9977     1.6937     1.8563 </r>
       <r>   -13.9870     0.0807     1.8571 </r>
       <r>   -13.9762     0.0005     1.8571 </r>
       <r>   -13.9655     0.0008     1.8572 </r>
       <r>   -13.9548     0.1499     1.8588 </r>
       <r>   -13.9440     3.2647     1.8938 </r>
       <r>   -13.9333     9.7495     1.9985 </r>
       <r>   -13.9226     4.3121     2.0448 </r>
       <r>   -13.9118     0.4508     2.0496 </r>
       <r>   -13.9011     3.6252     2.0885 </r>
       <r>   -13.8904     9.7972     2.1937 </r>
       <r>   -13.8796     4.2782     2.2396 </r>
       <r>   -13.8689     5.1485     2.2949 </r>
       <r>   -13.8582     9.5898     2.3978 </r>
       <r>   -13.8474     2.8044     2.4279 </r>
       <r>   -13.8367     1.4015     2.4430 </r>
       <r>   -13.8260     4.7525     2.4940 </r>
       <r>   -13.8152     2.5788     2.5217 </r>
       <r>   -13.8045     0.1976     2.5238 </r>
       <r>   -13.7937     0.0365     2.5242 </r>
       <r>   -13.7830     1.0908     2.5359 </r>
       <r>   -13.7723     4.6131     2.5854 </r>
       <r>   -13.7615     2.8755     2.6163 </r>
       <r>   -13.7508     0.2549     2.6190 </r>
       <r>   -13.7401     0.0028     2.6190 </r>
       <r>   -13.7293     0.0000     2.6190 </r>
       <r>   -13.7186     0.0000     2.6190 </r>
       <r>   -13.7079     0.0031     2.6191 </r>
       <r>   -13.6971     0.3479     2.6228 </r>
       <r>   -13.6864     4.8757     2.6752 </r>
       <r>   -13.6757     9.6714     2.7790 </r>
       <r>   -13.6649     4.3151     2.8253 </r>
       <r>   -13.6542     4.9646     2.8786 </r>
       <r>   -13.6435     2.9302     2.9100 </r>
       <r>   -13.6327     6.4474     2.9793 </r>
       <r>   -13.6220     8.9030     3.0748 </r>
       <r>   -13.6113     1.8498     3.0947 </r>
       <r>   -13.6005     0.0511     3.0952 </r>
       <r>   -13.5898     0.0002     3.0952 </r>
       <r>   -13.5790     0.0004     3.0952 </r>
       <r>   -13.5683     0.0758     3.0961 </r>
       <r>   -13.5576     1.6413     3.1137 </r>
       <r>   -13.5468     4.8765     3.1660 </r>
       <r>   -13.5361     2.1453     3.1891 </r>
       <r>   -13.5254     0.1316     3.1905 </r>
       <r>   -13.5146     0.0010     3.1905 </r>
       <r>   -13.5039     0.0000     3.1905 </r>
       <r>   -13.4932     0.0000     3.1905 </r>
       <r>   -13.4824     0.0000     3.1905 </r>
       <r>   -13.4717     0.0000     3.1905 </r>
       <r>   -13.4610     0.0034     3.1905 </r>
       <r>   -13.4502     0.4798     3.1957 </r>
       <r>   -13.4395     8.7468     3.2896 </r>
       <r>   -13.4288    23.7712     3.5447 </r>
       <r>   -13.4180    10.5916     3.6584 </r>
       <r>   -13.4073     0.7588     3.6666 </r>
       <r>   -13.3966     0.0080     3.6667 </r>
       <r>   -13.3858     0.0000     3.6667 </r>
       <r>   -13.3751     0.0000     3.6667 </r>
       <r>   -13.3644     0.0000     3.6667 </r>
       <r>   -13.3536     0.0006     3.6667 </r>
       <r>   -13.3429     0.1184     3.6679 </r>
       <r>   -13.3321     2.8961     3.6990 </r>
       <r>   -13.3214     9.6453     3.8026 </r>
       <r>   -13.3107     4.7520     3.8536 </r>
       <r>   -13.2999     0.3286     3.8571 </r>
       <r>   -13.2892     0.0036     3.8572 </r>
       <r>   -13.2785     0.1450     3.8587 </r>
       <r>   -13.2677     3.2105     3.8932 </r>
       <r>   -13.2570     9.7382     3.9977 </r>
       <r>   -13.2463     4.3743     4.0447 </r>
       <r>   -13.2355     0.4692     4.0497 </r>
       <r>   -13.2248     3.7758     4.0902 </r>
       <r>   -13.2141    11.7695     4.2166 </r>
       <r>   -13.2033    12.8591     4.3546 </r>
       <r>   -13.1926     6.2947     4.4222 </r>
       <r>   -13.1819     0.5872     4.4285 </r>
       <r>   -13.1711     0.0071     4.4286 </r>
       <r>   -13.1604     0.0000     4.4286 </r>
       <r>   -13.1497     0.0000     4.4286 </r>
       <r>   -13.1389     0.0000     4.4286 </r>
       <r>   -13.1282     0.0000     4.4286 </r>
       <r>   -13.1175     0.0000     4.4286 </r>
       <r>   -13.1067     0.0000     4.4286 </r>
       <r>   -13.0960     0.0000     4.4286 </r>
       <r>   -13.0852     0.0000     4.4286 </r>
       <r>   -13.0745     0.0000     4.4286 </r>
       <r>   -13.0638     0.0000     4.4286 </r>
       <r>   -13.0530     0.0000     4.4286 </r>
       <r>   -13.0423     0.0000     4.4286 </r>
       <r>   -13.0316     0.0000     4.4286 </r>
       <r>   -13.0208     0.0000     4.4286 </r>
       <r>   -13.0101     0.0000     4.4286 </r>
       <r>   -12.9994     0.0000     4.4286 </r>
       <r>   -12.9886     0.0000     4.4286 </r>
       <r>   -12.9779     0.0000     4.4286 </r>
       <r>   -12.9672     0.0023     4.4286 </r>
       <r>   -12.9564     0.2245     4.4310 </r>
       <r>   -12.9457     2.7259     4.4603 </r>
       <r>   -12.9350     4.6883     4.5106 </r>
       <r>   -12.9242     1.1900     4.5234 </r>
       <r>   -12.9135     0.0407     4.5238 </r>
       <r>   -12.9028     0.0106     4.5239 </r>
       <r>   -12.8920     0.5562     4.5299 </r>
       <r>   -12.8813     3.8517     4.5712 </r>
       <r>   -12.8706     3.8758     4.6128 </r>
       <r>   -12.8598     0.5669     4.6189 </r>
       <r>   -12.8491     0.0108     4.6190 </r>
       <r>   -12.8383     0.0000     4.6190 </r>
       <r>   -12.8276     0.0000     4.6190 </r>
       <r>   -12.8169     0.0007     4.6191 </r>
       <r>   -12.8061     0.1394     4.6206 </r>
       <r>   -12.7954     3.5052     4.6582 </r>
       <r>   -12.7847    14.8735     4.8178 </r>
       <r>   -12.7739    13.9988     4.9681 </r>
       <r>   -12.7632     4.2734     5.0140 </r>
       <r>   -12.7525     8.3283     5.1034 </r>
       <r>   -12.7417     7.1930     5.1806 </r>
       <r>   -12.7310     1.2941     5.1945 </r>
       <r>   -12.7203     5.1297     5.2496 </r>
       <r>   -12.7095    10.0188     5.3571 </r>
       <r>   -12.6988     6.3341     5.4251 </r>
       <r>   -12.6881     4.6201     5.4747 </r>
       <r>   -12.6773     6.3649     5.5430 </r>
       <r>   -12.6666     9.2669     5.6425 </r>
       <r>   -12.6559     2.9050     5.6737 </r>
       <r>   -12.6451     4.2210     5.7190 </r>
       <r>   -12.6344     3.5505     5.7571 </r>
       <r>   -12.6237     0.4385     5.7618 </r>
       <r>   -12.6129     0.0070     5.7619 </r>
       <r>   -12.6022     0.0002     5.7619 </r>
       <r>   -12.5914     0.0630     5.7626 </r>
       <r>   -12.5807     2.1892     5.7861 </r>
       <r>   -12.5700    13.7387     5.9336 </r>
       <r>   -12.5592    32.4511     6.2819 </r>
       <r>   -12.5485    26.8670     6.5703 </r>
       <r>   -12.5378     4.6821     6.6206 </r>
       <r>   -12.5270     4.3140     6.6669 </r>
       <r>   -12.5163     9.7667     6.7717 </r>
       <r>   -12.5056     3.3601     6.8078 </r>
       <r>   -12.4948     0.2531     6.8105 </r>
       <r>   -12.4841     1.2650     6.8241 </r>
       <r>   -12.4734     2.3858     6.8497 </r>
       <r>   -12.4626     0.6655     6.8569 </r>
       <r>   -12.4519     0.0252     6.8571 </r>
       <r>   -12.4412     0.0001     6.8571 </r>
       <r>   -12.4304     0.0001     6.8571 </r>
       <r>   -12.4197     0.0302     6.8575 </r>
       <r>   -12.4090     1.3758     6.8722 </r>
       <r>   -12.3982     8.2285     6.9606 </r>
       <r>   -12.3875     7.1872     7.0377 </r>
       <r>   -12.3768     0.9073     7.0475 </r>
       <r>   -12.3660     0.0147     7.0476 </r>
       <r>   -12.3553     0.0001     7.0476 </r>
       <r>   -12.3445     0.0168     7.0478 </r>
       <r>   -12.3338     0.9792     7.0583 </r>
       <r>   -12.3231     7.3996     7.1377 </r>
       <r>   -12.3123     8.8316     7.2326 </r>
       <r>   -12.3016     5.5363     7.2920 </r>
       <r>   -12.2909     3.4496     7.3290 </r>
       <r>   -12.2801     0.3967     7.3333 </r>
       <r>   -12.2694     0.0059     7.3333 </r>
       <r>   -12.2587     0.0027     7.3334 </r>
       <r>   -12.2479     0.2566     7.3361 </r>
       <r>   -12.2372     3.5698     7.3744 </r>
       <r>   -12.2265    11.3455     7.4962 </r>
       <r>   -12.2157    11.1781     7.6162 </r>
       <r>   -12.2050     6.5035     7.6860 </r>
       <r>   -12.1943     3.2248     7.7207 </r>
       <r>   -12.1835     6.9296     7.7950 </r>
       <r>   -12.1728     9.3659     7.8956 </r>
       <r>   -12.1621     4.0367     7.9389 </r>
       <r>   -12.1513     1.1786     7.9516 </r>
       <r>   -12.1406     0.0750     7.9524 </r>
       <r>   -12.1299     0.0006     7.9524 </r>
       <r>   -12.1191     0.0000     7.9524 </r>
       <r>   -12.1084     0.0027     7.9524 </r>
       <r>   -12.0976     0.3191     7.9558 </r>
       <r>   -12.0869     4.7097     8.0064 </r>
       <r>   -12.0762    10.7769     8.1221 </r>
       <r>   -12.0654    10.6527     8.2364 </r>
       <r>   -12.0547     7.8716     8.3209 </r>
       <r>   -12.0440     1.1333     8.3331 </r>
       <r>   -12.0332     0.0241     8.3334 </r>
       <r>   -12.0225     0.1815     8.3353 </r>
       <r>   -12.0118     1.6553     8.3531 </r>
       <r>   -12.0010     2.1705     8.3764 </r>
       <r>   -11.9903     0.6239     8.3831 </r>
       <r>   -11.9796     3.8379     8.4243 </r>
       <r>   -11.9688     9.7974     8.5294 </r>
       <r>   -11.9581     3.7191     8.5694 </r>
       <r>   -11.9474     0.7010     8.5769 </r>
       <r>   -11.9366     8.8412     8.6718 </r>
       <r>   -11.9259    28.2789     8.9754 </r>
       <r>   -11.9152    20.5695     9.1962 </r>
       <r>   -11.9044     3.7546     9.2365 </r>
       <r>   -11.8937     0.1489     9.2381 </r>
       <r>   -11.8830     0.0009     9.2381 </r>
       <r>   -11.8722     0.0000     9.2381 </r>
       <r>   -11.8615     0.0000     9.2381 </r>
       <r>   -11.8507     0.0000     9.2381 </r>
       <r>   -11.8400     0.0000     9.2381 </r>
       <r>   -11.8293     0.0000     9.2381 </r>
       <r>   -11.8185     0.0000     9.2381 </r>
       <r>   -11.8078     0.0024     9.2381 </r>
       <r>   -11.7971     0.2956     9.2413 </r>
       <r>   -11.7863     4.5338     9.2900 </r>
       <r>   -11.7756    10.1062     9.3985 </r>
       <r>   -11.7649     6.5163     9.4684 </r>
       <r>   -11.7541     4.3759     9.5154 </r>
       <r>   -11.7434     0.7672     9.5236 </r>
       <r>   -11.7327     0.0191     9.5238 </r>
       <r>   -11.7219     0.1466     9.5254 </r>
       <r>   -11.7112     3.2280     9.5600 </r>
       <r>   -11.7005     9.7420     9.6646 </r>
       <r>   -11.6897     4.3529     9.7113 </r>
       <r>   -11.6790     0.2715     9.7143 </r>
       <r>   -11.6683     0.0021     9.7143 </r>
       <r>   -11.6575     0.0002     9.7143 </r>
       <r>   -11.6468     0.0617     9.7150 </r>
       <r>   -11.6361     2.0515     9.7370 </r>
       <r>   -11.6253     9.1108     9.8348 </r>
       <r>   -11.6146     5.9576     9.8987 </r>
       <r>   -11.6038     0.5554     9.9047 </r>
       <r>   -11.5931     0.0065     9.9048 </r>
       <r>   -11.5824     0.0000     9.9048 </r>
       <r>   -11.5716     0.0001     9.9048 </r>
       <r>   -11.5609     0.0407     9.9052 </r>
       <r>   -11.5502     1.6296     9.9227 </r>
       <r>   -11.5394     8.6248    10.0153 </r>
       <r>   -11.5287     6.6920    10.0871 </r>
       <r>   -11.5180     0.8250    10.0960 </r>
       <r>   -11.5072     1.6830    10.1140 </r>
       <r>   -11.4965     4.8820    10.1664 </r>
       <r>   -11.4858     2.1104    10.1891 </r>
       <r>   -11.4750     0.1271    10.1905 </r>
       <r>   -11.4643     0.0009    10.1905 </r>
       <r>   -11.4536     0.0000    10.1905 </r>
       <r>   -11.4428     0.0004    10.1905 </r>
       <r>   -11.4321     0.1101    10.1917 </r>
       <r>   -11.4214     3.3707    10.2278 </r>
       <r>   -11.4106    13.9142    10.3772 </r>
       <r>   -11.3999     9.0732    10.4746 </r>
       <r>   -11.3892     7.5559    10.5557 </r>
       <r>   -11.3784    15.7831    10.7252 </r>
       <r>   -11.3677    10.8989    10.8421 </r>
       <r>   -11.3569     6.3065    10.9098 </r>
       <r>   -11.3462     9.7187    11.0142 </r>
       <r>   -11.3355     3.1240    11.0477 </r>
       <r>   -11.3247     3.2159    11.0822 </r>
       <r>   -11.3140     9.7087    11.1865 </r>
       <r>   -11.3033     4.5146    11.2349 </r>
       <r>   -11.2925     0.2937    11.2381 </r>
       <r>   -11.2818     0.0024    11.2381 </r>
       <r>   -11.2711     0.0001    11.2381 </r>
       <r>   -11.2603     0.0375    11.2385 </r>
       <r>   -11.2496     1.6681    11.2564 </r>
       <r>   -11.2389    10.6613    11.3709 </r>
       <r>   -11.2281    11.7496    11.4970 </r>
       <r>   -11.2174     2.7121    11.5261 </r>
       <r>   -11.2067     4.6432    11.5759 </r>
       <r>   -11.1959    10.9766    11.6938 </r>
       <r>   -11.1852    11.1056    11.8130 </r>
       <r>   -11.1745     7.5394    11.8939 </r>
       <r>   -11.1637     0.9926    11.9046 </r>
       <r>   -11.1530     0.0172    11.9048 </r>
       <r>   -11.1422     0.0000    11.9048 </r>
       <r>   -11.1315     0.0000    11.9048 </r>
       <r>   -11.1208     0.0000    11.9048 </r>
       <r>   -11.1100     0.0000    11.9048 </r>
       <r>   -11.0993     0.0000    11.9048 </r>
       <r>   -11.0886     0.0000    11.9048 </r>
       <r>   -11.0778     0.0000    11.9048 </r>
       <r>   -11.0671     0.0000    11.9048 </r>
       <r>   -11.0564     0.0004    11.9048 </r>
       <r>   -11.0456     0.0674    11.9055 </r>
       <r>   -11.0349     1.5473    11.9221 </r>
       <r>   -11.0242     4.8547    11.9742 </r>
       <r>   -11.0134     2.2545    11.9984 </r>
       <r>   -11.0027     0.1465    12.0000 </r>
       <r>   -10.9920     0.0012    12.0000 </r>
       <r>   -10.9812     0.0000    12.0000 </r>
       <r>   -10.9705     0.0000    12.0000 </r>
       <r>   -10.9598     0.0000    12.0000 </r>
       <r>   -10.9490     0.0000    12.0000 </r>
       <r>   -10.9383     0.0000    12.0000 </r>
       <r>   -10.9276     0.0000    12.0000 </r>
       <r>   -10.9168     0.0000    12.0000 </r>
       <r>   -10.9061     0.0000    12.0000 </r>
       <r>   -10.8953     0.0000    12.0000 </r>
       <r>   -10.8846     0.0000    12.0000 </r>
       <r>   -10.8739     0.0000    12.0000 </r>
       <r>   -10.8631     0.0000    12.0000 </r>
       <r>   -10.8524     0.0000    12.0000 </r>
       <r>   -10.8417     0.0000    12.0000 </r>
       <r>   -10.8309     0.0000    12.0000 </r>
       <r>   -10.8202     0.0000    12.0000 </r>
       <r>   -10.8095     0.0000    12.0000 </r>
       <r>   -10.7987     0.0000    12.0000 </r>
       <r>   -10.7880     0.0000    12.0000 </r>
       <r>   -10.7773     0.0000    12.0000 </r>
       <r>   -10.7665     0.0000    12.0000 </r>
       <r>   -10.7558     0.0000    12.0000 </r>
       <r>   -10.7451     0.0000    12.0000 </r>
       <r>   -10.7343     0.0000    12.0000 </r>
       <r>   -10.7236     0.0000    12.0000 </r>
       <r>   -10.7129     0.0000    12.0000 </r>
       <r>   -10.7021     0.0000    12.0000 </r>
       <r>   -10.6914     0.0000    12.0000 </r>
       <r>   -10.6807     0.0000    12.0000 </r>
       <r>   -10.6699     0.0000    12.0000 </r>
       <r>   -10.6592     0.0000    12.0000 </r>
       <r>   -10.6484     0.0000    12.0000 </r>
       <r>   -10.6377     0.0000    12.0000 </r>
       <r>   -10.6270     0.0000    12.0000 </r>
       <r>   -10.6162     0.0000    12.0000 </r>
       <r>   -10.6055     0.0000    12.0000 </r>
       <r>   -10.5948     0.0000    12.0000 </r>
       <r>   -10.5840     0.0000    12.0000 </r>
       <r>   -10.5733     0.0000    12.0000 </r>
       <r>   -10.5626     0.0000    12.0000 </r>
       <r>   -10.5518     0.0000    12.0000 </r>
       <r>   -10.5411     0.0000    12.0000 </r>
       <r>   -10.5304     0.0000    12.0000 </r>
       <r>   -10.5196     0.0000    12.0000 </r>
       <r>   -10.5089     0.0000    12.0000 </r>
       <r>   -10.4982     0.0000    12.0000 </r>
       <r>   -10.4874     0.0000    12.0000 </r>
       <r>   -10.4767     0.0000    12.0000 </r>
       <r>   -10.4660     0.0000    12.0000 </r>
       <r>   -10.4552     0.0000    12.0000 </r>
       <r>   -10.4445     0.0000    12.0000 </r>
       <r>   -10.4338     0.0000    12.0000 </r>
       <r>   -10.4230     0.0000    12.0000 </r>
       <r>   -10.4123     0.0000    12.0000 </r>
       <r>   -10.4015     0.0000    12.0000 </r>
       <r>   -10.3908     0.0000    12.0000 </r>
       <r>   -10.3801     0.0000    12.0000 </r>
       <r>   -10.3693     0.0000    12.0000 </r>
       <r>   -10.3586     0.0000    12.0000 </r>
       <r>   -10.3479     0.0000    12.0000 </r>
       <r>   -10.3371     0.0000    12.0000 </r>
       <r>   -10.3264     0.0005    12.0000 </r>
       <r>   -10.3157     0.0806    12.0009 </r>
       <r>   -10.3049     1.6930    12.0190 </r>
       <r>   -10.2942     4.8852    12.0715 </r>
       <r>   -10.2835     2.0875    12.0939 </r>
       <r>   -10.2727     0.1242    12.0952 </r>
       <r>   -10.2620     0.0009    12.0952 </r>
       <r>   -10.2513     0.0000    12.0952 </r>
       <r>   -10.2405     0.0000    12.0952 </r>
       <r>   -10.2298     0.0024    12.0953 </r>
       <r>   -10.2191     0.2948    12.0984 </r>
[...]
        <r>  0.0100  0.0099  0.0116  0.0075  0.0000  0.0000  0.0000  0.0000  0.0000 </r>
        <r>  0.0111  0.0091  0.0115  0.0078  0.0000  0.0000  0.0000  0.0000  0.0000 </r>
        <r>  0.0100  0.0112  0.0094  0.0062  0.0000  0.0000  0.0000  0.0000  0.0000 </r>
        <r>  0.0112  0.0103  0.0094  0.0065  0.0000  0.0000  0.0000  0.0000  0.0000 </r>
        <r>  0.0105  0.0073  0.0139  0.0091  0.0000  0.0000  0.0000  0.0000  0.0000 </r>
        <r>  0.0115  0.0066  0.0135  0.0097  0.0000  0.0000  0.0000  0.0000  0.0000 </r>
        <r>  0.0106  0.0126  0.0088  0.0057  0.0000  0.0000  0.0000  0.0000  0.0000 </r>
        <r>  0.0116  0.0119  0.0092  0.0057  0.0000  0.0000  0.0000  0.0000  0.0000 </r>
       </set>
       <set comment="band 25">
        <r>  0.0056  0.0098  0.0061  0.0071  0.0000  0.0000  0.0000  0.0000  0.0000 </r>
        <r>  0.0088  0.0153  0.0095  0.0046  0.0000  0.0000  0.0000  0.0000  0.0000 </r>
        <r>  0.0001  0.0114  0.0017  0.0029  0.0000  0.0000  0.0000  0.0000  0.0000 </r>
        <r>  0.0001  0.0176  0.0027  0.0018  0.0000  0.0000  0.0000  0.0000  0.0000 </r>
        <r>  0.0032  0.0262  0.0070  0.0092  0.0000  0.0000  0.0000  0.0000  0.0000 </r>
        <r>  0.0049  0.0408  0.0108  0.0058  0.0000  0.0000  0.0000  0.0000  0.0000 </r>
        <r>  0.0031  0.0258  0.0069  0.0091  0.0000  0.0000  0.0000  0.0000  0.0000 </r>
        <r>  0.0049  0.0404  0.0107  0.0058  0.0000  0.0000  0.0000  0.0000  0.0000 </r>
        <r>  0.0001  0.0116  0.0017  0.0029  0.0000  0.0000  0.0000  0.0000  0.0000 </r>
        <r>  0.0001  0.0178  0.0027  0.0018  0.0000  0.0000  0.0000  0.0000  0.0000 </r>
        <r>  0.0055  0.0097  0.0060  0.0070  0.0000  0.0000  0.0000  0.0000  0.0000 </r>
        <r>  0.0087  0.0152  0.0094  0.0045  0.0000  0.0000  0.0000  0.0000  0.0000 </r>
       </set>
       <set comment="band 26">
        <r>  0.0087  0.0152  0.0094  0.0045  0.0000  0.0000  0.0000  0.0000  0.0000 </r>
        <r>  0.0055  0.0097  0.0060  0.0070  0.0000  0.0000  0.0000  0.0000  0.0000 </r>
        <r>  0.0001  0.0178  0.0027  0.0018  0.0000  0.0000  0.0000  0.0000  0.0000 </r>
        <r>  0.0001  0.0116  0.0017  0.0029  0.0000  0.0000  0.0000  0.0000  0.0000 </r>
        <r>  0.0049  0.0404  0.0107  0.0058  0.0000  0.0000  0.0000  0.0000  0.0000 </r>
        <r>  0.0031  0.0258  0.0069  0.0091  0.0000  0.0000  0.0000  0.0000  0.0000 </r>
        <r>  0.0049  0.0408  0.0108  0.0058  0.0000  0.0000  0.0000  0.0000  0.0000 </r>
        <r>  0.0032  0.0262  0.0070  0.0092  0.0000  0.0000  0.0000  0.0000  0.0000 </r>
        <r>  0.0001  0.0176  0.0027  0.0018  0.0000  0.0000  0.0000  0.0000  0.0000 </r>
        <r>  0.0001  0.0114  0.0017  0.0029  0.0000  0.0000  0.0000  0.0000  0.0000 </r>
        <r>  0.0088  0.0153  0.0095  0.0046  0.0000  0.0000  0.0000  0.0000  0.0000 </r>
        <r>  0.0056  0.0098  0.0061  0.0071  0.0000  0.0000  0.0000  0.0000  0.0000 </r>
       </set>
       <set comment="band 27">
        <r>  0.0035  0.0283  0.0042  0.0074  0.0000  0.0000  0.0000  0.0000  0.0000 </r>
        <r>  0.0078  0.0556  0.0088  0.0035  0.0000  0.0000  0.0000  0.0000  0.0000 </r>
        <r>  0.0031  0.0200  0.0032  0.0061  0.0000  0.0000  0.0000  0.0000  0.0000 </r>
        <r>  0.0066  0.0464  0.0071  0.0028  0.0000  0.0000  0.0000  0.0000  0.0000 </r>
        <r>  0.0033  0.0003  0.0005  0.0005  0.0000  0.0000  0.0000  0.0000  0.0000 </r>
        <r>  0.0071  0.0007  0.0010  0.0003  0.0000  0.0000  0.0000  0.0000  0.0000 </r>
        <r>  0.0032  0.0004  0.0004  0.0004  0.0000  0.0000  0.0000  0.0000  0.0000 </r>
        <r>  0.0070  0.0008  0.0010  0.0002  0.0000  0.0000  0.0000  0.0000  0.0000 </r>
        <r>  0.0028  0.0274  0.0036  0.0063  0.0000  0.0000  0.0000  0.0000  0.0000 </r>
        <r>  0.0062  0.0538  0.0076  0.0030  0.0000  0.0000  0.0000  0.0000  0.0000 </r>
        <r>  0.0038  0.0207  0.0037  0.0071  0.0000  0.0000  0.0000  0.0000  0.0000 </r>
        <r>  0.0081  0.0480  0.0084  0.0032  0.0000  0.0000  0.0000  0.0000  0.0000 </r>
       </set>
       <set comment="band 28">
        <r>  0.0081  0.0480  0.0084  0.0032  0.0000  0.0000  0.0000  0.0000  0.0000 </r>
        <r>  0.0038  0.0207  0.0037  0.0071  0.0000  0.0000  0.0000  0.0000  0.0000 </r>
        <r>  0.0062  0.0538  0.0076  0.0030  0.0000  0.0000  0.0000  0.0000  0.0000 </r>
        <r>  0.0028  0.0274  0.0036  0.0063  0.0000  0.0000  0.0000  0.0000  0.0000 </r>
        <r>  0.0070  0.0008  0.0010  0.0002  0.0000  0.0000  0.0000  0.0000  0.0000 </r>
        <r>  0.0032  0.0004  0.0004  0.0004  0.0000  0.0000  0.0000  0.0000  0.0000 </r>
        <r>  0.0071  0.0007  0.0010  0.0003  0.0000  0.0000  0.0000  0.0000  0.0000 </r>
        <r>  0.0033  0.0003  0.0005  0.0005  0.0000  0.0000  0.0000  0.0000  0.0000 </r>
        <r>  0.0066  0.0464  0.0071  0.0028  0.0000  0.0000  0.0000  0.0000  0.0000 </r>
        <r>  0.0031  0.0200  0.0032  0.0061  0.0000  0.0000  0.0000  0.0000  0.0000 </r>
        <r>  0.0078  0.0556  0.0088  0.0035  0.0000  0.0000  0.0000  0.0000  0.0000 </r>
        <r>  0.0035  0.0283  0.0042  0.0074  0.0000  0.0000  0.0000  0.0000  0.0000 </r>
       </set>
       <set comment="band 29">
        <r>  0.0008  0.0189  0.0011  0.0024  0.0000  0.0000  0.0000  0.0000  0.0000 </r>
        <r>  0.0015  0.0401  0.0024  0.0011  0.0000  0.0000  0.0000  0.0000  0.0000 </r>
        <r>  0.0060  0.0133  0.0026  0.0043  0.0000  0.0000  0.0000  0.0000  0.0000 </r>
        <r>  0.0128  0.0268  0.0056  0.0020  0.0000  0.0000  0.0000  0.0000  0.0000 </r>
        <r>  0.0048  0.0254  0.0026  0.0045  0.0000  0.0000  0.0000  0.0000  0.0000 </r>
        <r>  0.0097  0.0533  0.0054  0.0021  0.0000  0.0000  0.0000  0.0000  0.0000 </r>
        <r>  0.0045  0.0268  0.0025  0.0045  0.0000  0.0000  0.0000  0.0000  0.0000 </r>
        <r>  0.0095  0.0548  0.0053  0.0021  0.0000  0.0000  0.0000  0.0000  0.0000 </r>
        <r>  0.0062  0.0125  0.0027  0.0042  0.0000  0.0000  0.0000  0.0000  0.0000 </r>
        <r>  0.0130  0.0259  0.0056  0.0020  0.0000  0.0000  0.0000  0.0000  0.0000 </r>
        <r>  0.0007  0.0198  0.0011  0.0023  0.0000  0.0000  0.0000  0.0000  0.0000 </r>
        <r>  0.0014  0.0410  0.0024  0.0011  0.0000  0.0000  0.0000  0.0000  0.0000 </r>
       </set>
       <set comment="band 30">
        <r>  0.0014  0.0410  0.0024  0.0011  0.0000  0.0000  0.0000  0.0000  0.0000 </r>
        <r>  0.0007  0.0198  0.0011  0.0023  0.0000  0.0000  0.0000  0.0000  0.0000 </r>
        <r>  0.0130  0.0259  0.0056  0.0020  0.0000  0.0000  0.0000  0.0000  0.0000 </r>
        <r>  0.0062  0.0125  0.0027  0.0042  0.0000  0.0000  0.0000  0.0000  0.0000 </r>
        <r>  0.0095  0.0548  0.0053  0.0021  0.0000  0.0000  0.0000  0.0000  0.0000 </r>
        <r>  0.0045  0.0268  0.0025  0.0045  0.0000  0.0000  0.0000  0.0000  0.0000 </r>
        <r>  0.0097  0.0533  0.0054  0.0021  0.0000  0.0000  0.0000  0.0000  0.0000 </r>
        <r>  0.0048  0.0254  0.0026  0.0045  0.0000  0.0000  0.0000  0.0000  0.0000 </r>
        <r>  0.0128  0.0268  0.0056  0.0020  0.0000  0.0000  0.0000  0.0000  0.0000 </r>
        <r>  0.0060  0.0133  0.0026  0.0043  0.0000  0.0000  0.0000  0.0000  0.0000 </r>
        <r>  0.0015  0.0401  0.0024  0.0011  0.0000  0.0000  0.0000  0.0000  0.0000 </r>
        <r>  0.0008  0.0189  0.0011  0.0024  0.0000  0.0000  0.0000  0.0000  0.0000 </r>
       </set>
       <set comment="band 31">
        <r>  0.0028  0.0083  0.0023  0.0009  0.0000  0.0000  0.0000  0.0000  0.0000 </r>
        <r>  0.0017  0.0055  0.0014  0.0016  0.0000  0.0000  0.0000  0.0000  0.0000 </r>
        <r>  0.0008  0.0148  0.0001  0.0002  0.0000  0.0000  0.0000  0.0000  0.0000 </r>
        <r>  0.0005  0.0089  0.0001  0.0001  0.0000  0.0000  0.0000  0.0000  0.0000 </r>
        <r>  0.0036  0.0274  0.0009  0.0009  0.0000  0.0000  0.0000  0.0000  0.0000 </r>
        <r>  0.0022  0.0173  0.0006  0.0012  0.0000  0.0000  0.0000  0.0000  0.0000 </r>
        <r>  0.0037  0.0271  0.0009  0.0009  0.0000  0.0000  0.0000  0.0000  0.0000 </r>
        <r>  0.0022  0.0170  0.0006  0.0013  0.0000  0.0000  0.0000  0.0000  0.0000 </r>
        <r>  0.0008  0.0149  0.0001  0.0002  0.0000  0.0000  0.0000  0.0000  0.0000 </r>
        <r>  0.0005  0.0090  0.0001  0.0001  0.0000  0.0000  0.0000  0.0000  0.0000 </r>
        <r>  0.0028  0.0081  0.0024  0.0010  0.0000  0.0000  0.0000  0.0000  0.0000 </r>
        <r>  0.0017  0.0054  0.0015  0.0016  0.0000  0.0000  0.0000  0.0000  0.0000 </r>
       </set>
       <set comment="band 32">
        <r>  0.0017  0.0054  0.0015  0.0016  0.0000  0.0000  0.0000  0.0000  0.0000 </r>
        <r>  0.0028  0.0081  0.0024  0.0010  0.0000  0.0000  0.0000  0.0000  0.0000 </r>
        <r>  0.0005  0.0090  0.0001  0.0001  0.0000  0.0000  0.0000  0.0000  0.0000 </r>
        <r>  0.0008  0.0149  0.0001  0.0002  0.0000  0.0000  0.0000  0.0000  0.0000 </r>
        <r>  0.0022  0.0170  0.0006  0.0013  0.0000  0.0000  0.0000  0.0000  0.0000 </r>
        <r>  0.0037  0.0270  0.0009  0.0009  0.0000  0.0000  0.0000  0.0000  0.0000 </r>
        <r>  0.0022  0.0173  0.0006  0.0012  0.0000  0.0000  0.0000  0.0000  0.0000 </r>
        <r>  0.0036  0.0274  0.0009  0.0009  0.0000  0.0000  0.0000  0.0000  0.0000 </r>
        <r>  0.0005  0.0089  0.0001  0.0001  0.0000  0.0000  0.0000  0.0000  0.0000 </r>
        <r>  0.0008  0.0148  0.0001  0.0002  0.0000  0.0000  0.0000  0.0000  0.0000 </r>
        <r>  0.0017  0.0055  0.0015  0.0016  0.0000  0.0000  0.0000  0.0000  0.0000 </r>
        <r>  0.0028  0.0083  0.0023  0.0009  0.0000  0.0000  0.0000  0.0000  0.0000 </r>
       </set>
       <set comment="band 33">
        <r>  0.0045  0.0039  0.0020  0.0031  0.0000  0.0000  0.0000  0.0000  0.0000 </r>
        <r>  0.0072  0.0127  0.0028  0.0023  0.0000  0.0000  0.0000  0.0000  0.0000 </r>
        <r>  0.0009  0.0267  0.0001  0.0004  0.0000  0.0000  0.0000  0.0000  0.0000 </r>
        <r>  0.0027  0.0386  0.0003  0.0000  0.0000  0.0000  0.0000  0.0000  0.0000 </r>
        <r>  0.0000  0.0040  0.0031  0.0003  0.0000  0.0000  0.0000  0.0000  0.0000 </r>
        <r>  0.0002  0.0040  0.0044  0.0000  0.0000  0.0000  0.0000  0.0000  0.0000 </r>
        <r>  0.0015  0.0001  0.0012  0.0023  0.0000  0.0000  0.0000  0.0000  0.0000 </r>
        <r>  0.0016  0.0000  0.0025  0.0021  0.0000  0.0000  0.0000  0.0000  0.0000 </r>
        <r>  0.0068  0.0122  0.0011  0.0032  0.0000  0.0000  0.0000  0.0000  0.0000 </r>
        <r>  0.0086  0.0241  0.0013  0.0029  0.0000  0.0000  0.0000  0.0000  0.0000 </r>
        <r>  0.0038  0.0372  0.0007  0.0015  0.0000  0.0000  0.0000  0.0000  0.0000 </r>
        <r>  0.0065  0.0461  0.0016  0.0007  0.0000  0.0000  0.0000  0.0000  0.0000 </r>
       </set>
       <set comment="band 34">
        <r>  0.0065  0.0461  0.0016  0.0007  0.0000  0.0000  0.0000  0.0000  0.0000 </r>
        <r>  0.0038  0.0372  0.0007  0.0015  0.0000  0.0000  0.0000  0.0000  0.0000 </r>
        <r>  0.0086  0.0241  0.0013  0.0029  0.0000  0.0000  0.0000  0.0000  0.0000 </r>
        <r>  0.0068  0.0122  0.0011  0.0032  0.0000  0.0000  0.0000  0.0000  0.0000 </r>
        <r>  0.0016  0.0000  0.0025  0.0021  0.0000  0.0000  0.0000  0.0000  0.0000 </r>
        <r>  0.0015  0.0001  0.0012  0.0023  0.0000  0.0000  0.0000  0.0000  0.0000 </r>
        <r>  0.0002  0.0040  0.0044  0.0000  0.0000  0.0000  0.0000  0.0000  0.0000 </r>
        <r>  0.0000  0.0040  0.0031  0.0003  0.0000  0.0000  0.0000  0.0000  0.0000 </r>
        <r>  0.0027  0.0386  0.0003  0.0000  0.0000  0.0000  0.0000  0.0000  0.0000 </r>
        <r>  0.0009  0.0267  0.0001  0.0004  0.0000  0.0000  0.0000  0.0000  0.0000 </r>
        <r>  0.0072  0.0127  0.0028  0.0023  0.0000  0.0000  0.0000  0.0000  0.0000 </r>
        <r>  0.0045  0.0039  0.0020  0.0031  0.0000  0.0000  0.0000  0.0000  0.0000 </r>
       </set>
       <set comment="band 35">
        <r>  0.0072  0.0307  0.0001  0.0016  0.0000  0.0000  0.0000  0.0000  0.0000 </r>
        <r>  0.0046  0.0145  0.0000  0.0018  0.0000  0.0000  0.0000  0.0000  0.0000 </r>
        <r>  0.0110  0.0270  0.0030  0.0016  0.0000  0.0000  0.0000  0.0000  0.0000 </r>
        <r>  0.0053  0.0195  0.0015  0.0034  0.0000  0.0000  0.0000  0.0000  0.0000 </r>
        <r>  0.0136  0.0327  0.0014  0.0028  0.0000  0.0000  0.0000  0.0000  0.0000 </r>
        <r>  0.0075  0.0140  0.0008  0.0043  0.0000  0.0000  0.0000  0.0000  0.0000 </r>
        <r>  0.0109  0.0454  0.0012  0.0012  0.0000  0.0000  0.0000  0.0000  0.0000 </r>
        <r>  0.0047  0.0268  0.0005  0.0027  0.0000  0.0000  0.0000  0.0000  0.0000 </r>
        <r>  0.0107  0.0147  0.0028  0.0017  0.0000  0.0000  0.0000  0.0000  0.0000 </r>
        <r>  0.0050  0.0072  0.0013  0.0035  0.0000  0.0000  0.0000  0.0000  0.0000 </r>
        <r>  0.0046  0.0312  0.0001  0.0006  0.0000  0.0000  0.0000  0.0000  0.0000 </r>
        <r>  0.0020  0.0150  0.0000  0.0007  0.0000  0.0000  0.0000  0.0000  0.0000 </r>
       </set>
       <set comment="band 36">
        <r>  0.0020  0.0150  0.0000  0.0007  0.0000  0.0000  0.0000  0.0000  0.0000 </r>
        <r>  0.0046  0.0312  0.0001  0.0006  0.0000  0.0000  0.0000  0.0000  0.0000 </r>
        <r>  0.0050  0.0072  0.0013  0.0035  0.0000  0.0000  0.0000  0.0000  0.0000 </r>
        <r>  0.0107  0.0147  0.0028  0.0017  0.0000  0.0000  0.0000  0.0000  0.0000 </r>
        <r>  0.0047  0.0268  0.0005  0.0027  0.0000  0.0000  0.0000  0.0000  0.0000 </r>
        <r>  0.0109  0.0454  0.0012  0.0012  0.0000  0.0000  0.0000  0.0000  0.0000 </r>
        <r>  0.0075  0.0140  0.0008  0.0043  0.0000  0.0000  0.0000  0.0000  0.0000 </r>
        <r>  0.0136  0.0327  0.0014  0.0028  0.0000  0.0000  0.0000  0.0000  0.0000 </r>
        <r>  0.0053  0.0195  0.0015  0.0034  0.0000  0.0000  0.0000  0.0000  0.0000 </r>
        <r>  0.0110  0.0270  0.0030  0.0016  0.0000  0.0000  0.0000  0.0000  0.0000 </r>
        <r>  0.0046  0.0145  0.0000  0.0018  0.0000  0.0000  0.0000  0.0000  0.0000 </r>
        <r>  0.0072  0.0307  0.0001  0.0016  0.0000  0.0000  0.0000  0.0000  0.0000 </r>
       </set>
       <set comment="band 37">
        <r>  0.0002  0.0017  0.0008  0.0003  0.0000  0.0000  0.0000  0.0000  0.0000 </r>
        <r>  0.0002  0.0008  0.0003  0.0005  0.0000  0.0000  0.0000  0.0000  0.0000 </r>
        <r>  0.0001  0.0012  0.0040  0.0007  0.0000  0.0000  0.0000  0.0000  0.0000 </r>
        <r>  0.0003  0.0008  0.0000  0.0002  0.0000  0.0000  0.0000  0.0000  0.0000 </r>
        <r>  0.0008  0.0001  0.0128  0.0475  0.0000  0.0000  0.0000  0.0000  0.0000 </r>
        <r>  0.0040  0.0011  0.1069  0.0052  0.0000  0.0000  0.0000  0.0000  0.0000 </r>
        <r>  0.0004  0.0001  0.0294  0.0536  0.0000  0.0000  0.0000  0.0000  0.0000 </r>
        <r>  0.0035  0.0011  0.1259  0.0112  0.0000  0.0000  0.0000  0.0000  0.0000 </r>
        <r>  0.0002  0.0010  0.0010  0.0006  0.0000  0.0000  0.0000  0.0000  0.0000 </r>
        <r>  0.0001  0.0004  0.0001  0.0001  0.0000  0.0000  0.0000  0.0000  0.0000 </r>
        <r>  0.0002  0.0015  0.0000  0.0001  0.0000  0.0000  0.0000  0.0000  0.0000 </r>
        <r>  0.0001  0.0003  0.0001  0.0000  0.0000  0.0000  0.0000  0.0000  0.0000 </r>
       </set>
       <set comment="band 38">
        <r>  0.0001  0.0003  0.0001  0.0000  0.0000  0.0000  0.0000  0.0000  0.0000 </r>
        <r>  0.0003  0.0015  0.0001  0.0002  0.0000  0.0000  0.0000  0.0000  0.0000 </r>
        <r>  0.0001  0.0003  0.0005  0.0002  0.0000  0.0000  0.0000  0.0000  0.0000 </r>
        <r>  0.0002  0.0011  0.0004  0.0009  0.0000  0.0000  0.0000  0.0000  0.0000 </r>
        <r>  0.0036  0.0010  0.1249  0.0109  0.0000  0.0000  0.0000  0.0000  0.0000 </r>
        <r>  0.0004  0.0001  0.0286  0.0534  0.0000  0.0000  0.0000  0.0000  0.0000 </r>
        <r>  0.0040  0.0011  0.1062  0.0049  0.0000  0.0000  0.0000  0.0000  0.0000 </r>
        <r>  0.0008  0.0001  0.0119  0.0478  0.0000  0.0000  0.0000  0.0000  0.0000 </r>
        <r>  0.0005  0.0009  0.0019  0.0002  0.0000  0.0000  0.0000  0.0000  0.0000 </r>
        <r>  0.0001  0.0012  0.0035  0.0020  0.0000  0.0000  0.0000  0.0000  0.0000 </r>
        <r>  0.0003  0.0008  0.0015  0.0006  0.0000  0.0000  0.0000  0.0000  0.0000 </r>
        <r>  0.0002  0.0016  0.0012  0.0011  0.0000  0.0000  0.0000  0.0000  0.0000 </r>
       </set>
       <set comment="band 39">
        <r>  0.0018  0.0002  0.0074  0.0132  0.0000  0.0000  0.0000  0.0000  0.0000 </r>
        <r>  0.0025  0.0006  0.0276  0.0044  0.0000  0.0000  0.0000  0.0000  0.0000 </r>
        <r>  0.0002  0.0003  0.0548  0.0306  0.0000  0.0000  0.0000  0.0000  0.0000 </r>
        <r>  0.0012  0.0004  0.0782  0.0204  0.0000  0.0000  0.0000  0.0000  0.0000 </r>
        <r>  0.0000  0.0000  0.0009  0.0008  0.0000  0.0000  0.0000  0.0000  0.0000 </r>
        <r>  0.0000  0.0001  0.0011  0.0002  0.0000  0.0000  0.0000  0.0000  0.0000 </r>
        <r>  0.0000  0.0002  0.0004  0.0007  0.0000  0.0000  0.0000  0.0000  0.0000 </r>
        <r>  0.0000  0.0001  0.0010  0.0003  0.0000  0.0000  0.0000  0.0000  0.0000 </r>
        <r>  0.0005  0.0004  0.0466  0.0147  0.0000  0.0000  0.0000  0.0000  0.0000 </r>
        <r>  0.0004  0.0001  0.0399  0.0181  0.0000  0.0000  0.0000  0.0000  0.0000 </r>
        <r>  0.0015  0.0002  0.0146  0.0043  0.0000  0.0000  0.0000  0.0000  0.0000 </r>
        <r>  0.0012  0.0002  0.0092  0.0075  0.0000  0.0000  0.0000  0.0000  0.0000 </r>
       </set>
       <set comment="band 40">
        <r>  0.0011  0.0004  0.0131  0.0144  0.0000  0.0000  0.0000  0.0000  0.0000 </r>
        <r>  0.0018  0.0005  0.0290  0.0062  0.0000  0.0000  0.0000  0.0000  0.0000 </r>
        <r>  0.0006  0.0004  0.0280  0.0204  0.0000  0.0000  0.0000  0.0000  0.0000 </r>
        <r>  0.0012  0.0009  0.0480  0.0115  0.0000  0.0000  0.0000  0.0000  0.0000 </r>
        <r>  0.0001  0.0010  0.0003  0.0001  0.0000  0.0000  0.0000  0.0000  0.0000 </r>
        <r>  0.0001  0.0007  0.0006  0.0000  0.0000  0.0000  0.0000  0.0000  0.0000 </r>
        <r>  0.0001  0.0009  0.0005  0.0000  0.0000  0.0000  0.0000  0.0000  0.0000 </r>
        <r>  0.0001  0.0005  0.0003  0.0002  0.0000  0.0000  0.0000  0.0000  0.0000 </r>
        <r>  0.0009  0.0006  0.0463  0.0265  0.0000  0.0000  0.0000  0.0000  0.0000 </r>
        <r>  0.0013  0.0009  0.0630  0.0190  0.0000  0.0000  0.0000  0.0000  0.0000 </r>
        <r>  0.0017  0.0006  0.0164  0.0150  0.0000  0.0000  0.0000  0.0000  0.0000 </r>
        <r>  0.0024  0.0007  0.0296  0.0081  0.0000  0.0000  0.0000  0.0000  0.0000 </r>
       </set>
      </set>
     </set>
    </set>
   </array>
  </projected>
 </calculation>
 <structure name="finalpos" >
  <crystal>
   <varray name="basis" >
    <v>       3.34288600       0.00000000       0.00000000 </v>
    <v>       0.00000000      32.60240900       0.00000000 </v>
    <v>       0.00000000       0.00000000       4.37483100 </v>
   </varray>
   <i name="volume">    476.79592902 </i>
   <varray name="rec_basis" >
    <v>       0.29914272       0.00000000       0.00000000 </v>
    <v>       0.00000000       0.03067258       0.00000000 </v>
    <v>       0.00000000       0.00000000       0.22858026 </v>
   </varray>
  </crystal>
  <varray name="positions" >
   <v>       0.00000000       0.30672600       0.91892400 </v>
   <v>       0.50000000       0.30672600       0.58107600 </v>
   <v>       0.00000000       0.37246700       0.08107600 </v>
   <v>       0.50000000       0.37246700       0.41892400 </v>
   <v>       0.00000000       0.46712900       0.91892400 </v>
   <v>       0.50000000       0.46712900       0.58107600 </v>
   <v>       0.00000000       0.53287100       0.08107600 </v>
   <v>       0.50000000       0.53287100       0.41892400 </v>
   <v>       0.00000000       0.62753300       0.91892400 </v>
   <v>       0.50000000       0.62753300       0.58107600 </v>
   <v>       0.00000000       0.69327400       0.08107600 </v>
   <v>       0.50000000       0.69327400       0.41892400 </v>
  </varray>
 </structure>
</modeling>
