<?xml version="1.0" encoding="ISO-8859-1"?>
<modeling>
 <generator>
  <i name="program" type="string">vasp </i>
  <i name="version" type="string">5.4.4.18Apr17-6-g9f103f2a35  </i>
  <i name="subversion" type="string">(build Jun 20 2017 18:00:50) complex            parallel </i>
  <i name="platform" type="string">LinuxIFC </i>
  <i name="date" type="string">2018 03 16 </i>
  <i name="time" type="string">16:00:17 </i>
 </generator>
 <incar>
  <i type="string" name="SYSTEM"> Generic Input</i>
  <i type="int" name="ISTART">     1</i>
  <i type="string" name="PREC">normal    ! precision level</i>
  <i type="int" name="IALGO">    53</i>
  <i type="string" name="ALGO"> Normal    ! SCF minimisation algorithm</i>
  <i type="int" name="INIWAV">     1</i>
  <i type="int" name="NELM">   200</i>
  <i type="int" name="NELMIN">     2</i>
  <i type="int" name="IBRION">     2</i>
  <i name="EDIFF">      0.00001000</i>
  <i name="EDIFFG">     -0.02000000</i>
  <i type="int" name="NSW">     0</i>
  <i type="int" name="ISIF">     3</i>
  <i type="int" name="IWAVPR">    11</i>
  <i type="int" name="NBLOCK">     1</i>
  <i type="int" name="KBLOCK">    40</i>
  <i name="ENCUT">    650.00000000</i>
  <i type="int" name="NEDOS">  2000</i>
  <i type="int" name="ISMEAR">     0</i>
  <i name="SIGMA">      0.01000000</i>
  <i type="int" name="NWRITE">     2</i>
  <i type="logical" name="LVHAR"> T  </i>
  <i type="int" name="LORBIT">    11</i>
  <i type="logical" name="LASPH"> T  </i>
  <i type="int" name="ICORELEVEL">     1</i>
  <v type="int" name="KPOINT_BSE">    -1     0     0     0</v>
  <i type="int" name="NELM">   200</i>
  <i type="string" name="GGA"> PE        ! PBEsol exchange-correlation</i>
  <i type="logical" name="LASPH"> T  </i>
 </incar>
 <structure name="primitive_cell" >
  <crystal>
   <varray name="basis" >
    <v>       3.34288600       0.00000000       0.00000000 </v>
    <v>       0.00000000      32.60240900       0.00000000 </v>
    <v>       0.00000000       0.00000000       4.37483100 </v>
   </varray>
   <i name="volume">    476.79592902 </i>
   <varray name="rec_basis" >
    <v>       0.29914272       0.00000000       0.00000000 </v>
    <v>       0.00000000       0.03067258       0.00000000 </v>
    <v>       0.00000000       0.00000000       0.22858026 </v>
   </varray>
  </crystal>
  <varray name="positions" >
   <v>       0.00000000       0.30672600      -0.08107600 </v>
   <v>      -0.50000000       0.30672600      -0.41892400 </v>
   <v>       0.00000000       0.37246700       0.08107600 </v>
   <v>      -0.50000000       0.37246700       0.41892400 </v>
   <v>       0.00000000       0.46712900      -0.41892400 </v>
   <v>      -0.50000000       0.46712900      -0.08107600 </v>
   <v>      -0.50000000      -0.46712900       0.08107600 </v>
   <v>       0.00000000      -0.46712900       0.41892400 </v>
   <v>       0.00000000      -0.37246700      -0.08107600 </v>
   <v>      -0.50000000      -0.37246700      -0.41892400 </v>
   <v>       0.00000000      -0.30672600       0.08107600 </v>
   <v>      -0.50000000      -0.30672600       0.41892400 </v>
  </varray>
 </structure>
 <varray name="primitive_index" >
  <v type="int" >        1 </v>
  <v type="int" >        2 </v>
  <v type="int" >        3 </v>
  <v type="int" >        4 </v>
  <v type="int" >        6 </v>
  <v type="int" >        5 </v>
  <v type="int" >        7 </v>
  <v type="int" >        8 </v>
  <v type="int" >        9 </v>
  <v type="int" >       10 </v>
  <v type="int" >       11 </v>
  <v type="int" >       12 </v>
 </varray>
 <kpoints>
  <generation param="Gamma">
   <v type="int" name="divisions">       6        1        4 </v>
   <v name="usershift">      0.00000000       0.00000000       0.00000000 </v>
   <v name="genvec1">      0.16666667       0.00000000       0.00000000 </v>
   <v name="genvec2">      0.00000000       1.00000000       0.00000000 </v>
   <v name="genvec3">      0.00000000       0.00000000       0.25000000 </v>
   <v name="shift">      0.00000000       0.00000000       0.00000000 </v>
  </generation>
  <varray name="kpointlist" >
   <v>       0.00000000       0.00000000       0.00000000 </v>
   <v>       0.16666667       0.00000000       0.00000000 </v>
   <v>       0.33333333       0.00000000       0.00000000 </v>
   <v>       0.50000000       0.00000000       0.00000000 </v>
   <v>       0.00000000       0.00000000       0.25000000 </v>
   <v>       0.16666667       0.00000000       0.25000000 </v>
   <v>       0.33333333       0.00000000       0.25000000 </v>
   <v>       0.50000000       0.00000000       0.25000000 </v>
   <v>       0.00000000       0.00000000       0.50000000 </v>
   <v>       0.16666667       0.00000000       0.50000000 </v>
   <v>       0.33333333       0.00000000       0.50000000 </v>
   <v>       0.50000000       0.00000000       0.50000000 </v>
  </varray>
  <varray name="weights" >
   <v>       0.04166667 </v>
   <v>       0.08333333 </v>
   <v>       0.08333333 </v>
   <v>       0.04166667 </v>
   <v>       0.08333333 </v>
   <v>       0.16666667 </v>
   <v>       0.16666667 </v>
   <v>       0.08333333 </v>
   <v>       0.04166667 </v>
   <v>       0.08333333 </v>
   <v>       0.08333333 </v>
   <v>       0.04166667 </v>
  </varray>
 </kpoints>
 <parameters>
  <separator name="general" >
   <i type="string" name="SYSTEM">Generic Input</i>
   <i type="logical" name="LCOMPAT"> F  </i>
  </separator>
  <separator name="electronic" >
   <i type="string" name="PREC">normal</i>
   <i name="ENMAX">    650.00000000</i>
   <i name="ENAUG">    342.92400000</i>
   <i name="EDIFF">      0.00001000</i>
   <i type="int" name="IALGO">    38</i>
   <i type="int" name="IWAVPR">    11</i>
   <i type="int" name="NBANDS">    40</i>
   <i name="NELECT">     60.00000000</i>
   <i type="int" name="TURBO">     0</i>
   <i type="int" name="IRESTART">     0</i>
   <i type="int" name="NREBOOT">     0</i>
   <i type="int" name="NMIN">     0</i>
   <i name="EREF">      0.00000000</i>
   <separator name="electronic smearing" >
    <i type="int" name="ISMEAR">     0</i>
    <i name="SIGMA">      0.01000000</i>
    <i name="KSPACING">      0.50000000</i>
    <i type="logical" name="KGAMMA"> T  </i>
   </separator>
   <separator name="electronic projectors" >
    <i type="logical" name="LREAL"> F  </i>
    <v name="ROPT">      0.00000000</v>
    <i type="int" name="LMAXPAW">  -100</i>
    <i type="int" name="LMAXMIX">     2</i>
    <i type="logical" name="NLSPLINE"> F  </i>
   </separator>
   <separator name="electronic startup" >
    <i type="int" name="ISTART">     0</i>
    <i type="int" name="ICHARG">     2</i>
    <i type="int" name="INIWAV">     1</i>
   </separator>
   <separator name="electronic spin" >
    <i type="int" name="ISPIN">     1</i>
    <i type="logical" name="LNONCOLLINEAR"> F  </i>
    <v name="MAGMOM">      1.00000000      1.00000000      1.00000000      1.00000000      1.00000000      1.00000000      1.00000000      1.00000000      1.00000000      1.00000000      1.00000000      1.00000000</v>
    <i name="NUPDOWN">     -1.00000000</i>
    <i type="logical" name="LSORBIT"> F  </i>
    <v name="SAXIS">      0.00000000      0.00000000      1.00000000</v>
    <i type="logical" name="LSPIRAL"> F  </i>
    <v name="QSPIRAL">      0.00000000      0.00000000      0.00000000</v>
    <i type="logical" name="LZEROZ"> F  </i>
   </separator>
   <separator name="electronic exchange-correlation" >
    <i type="logical" name="LASPH"> T  </i>
    <i type="logical" name="LMETAGGA"> F  </i>
   </separator>
   <separator name="electronic convergence" >
    <i type="int" name="NELM">   200</i>
    <i type="int" name="NELMDL">     0</i>
    <i type="int" name="NELMIN">     2</i>
    <i name="ENINI">    650.00000000</i>
    <separator name="electronic convergence detail" >
     <i type="logical" name="LDIAG"> T  </i>
     <i type="logical" name="LSUBROT"> F  </i>
     <i name="WEIMIN">      0.00000000</i>
     <i name="EBREAK">      0.00000006</i>
     <i name="DEPER">      0.30000000</i>
     <i type="int" name="NRMM">     4</i>
     <i name="TIME">      0.40000000</i>
    </separator>
   </separator>
   <separator name="electronic mixer" >
    <i name="AMIX">      0.40000000</i>
    <i name="BMIX">      1.00000000</i>
    <i name="AMIN">      0.10000000</i>
    <i name="AMIX_MAG">      1.60000000</i>
    <i name="BMIX_MAG">      1.00000000</i>
    <separator name="electronic mixer details" >
     <i type="int" name="IMIX">     4</i>
     <i type="logical" name="MIXFIRST"> F  </i>
     <i type="int" name="MAXMIX">   -45</i>
     <i name="WC">    100.00000000</i>
     <i type="int" name="INIMIX">     1</i>
     <i type="int" name="MIXPRE">     1</i>
     <i type="int" name="MREMOVE">     5</i>
    </separator>
   </separator>
   <separator name="electronic dipolcorrection" >
    <i type="logical" name="LDIPOL"> F  </i>
    <i type="logical" name="LMONO"> F  </i>
    <i type="int" name="IDIPOL">     0</i>
    <i name="EPSILON">      1.00000000</i>
    <v name="DIPOL">   -100.00000000   -100.00000000   -100.00000000</v>
    <i name="EFIELD">      0.00000000</i>
   </separator>
  </separator>
  <separator name="grids" >
   <i type="int" name="NGX">    24</i>
   <i type="int" name="NGY">   210</i>
   <i type="int" name="NGZ">    28</i>
   <i type="int" name="NGXF">    48</i>
   <i type="int" name="NGYF">   420</i>
   <i type="int" name="NGZF">    56</i>
   <i type="logical" name="ADDGRID"> F  </i>
  </separator>
  <separator name="ionic" >
   <i type="int" name="NSW">     0</i>
   <i type="int" name="IBRION">    -1</i>
   <i type="int" name="MDALGO">     0</i>
   <i type="int" name="ISIF">     3</i>
   <i name="PSTRESS">      0.00000000</i>
   <i name="EDIFFG">     -0.02000000</i>
   <i type="int" name="NFREE">     1</i>
   <i name="POTIM">      0.50000000</i>
   <i name="SMASS">     -3.00000000</i>
   <i name="SCALEE">      1.00000000</i>
  </separator>
  <separator name="ionic md" >
   <i name="TEBEG">      0.00010000</i>
   <i name="TEEND">      0.00010000</i>
   <i type="int" name="NBLOCK">     1</i>
   <i type="int" name="KBLOCK">     1</i>
   <i type="int" name="NPACO">   256</i>
   <i name="APACO">     16.00000000</i>
  </separator>
  <separator name="symmetry" >
   <i type="int" name="ISYM">     2</i>
   <i name="SYMPREC">      0.00001000</i>
  </separator>
  <separator name="dos" >
   <i type="int" name="LORBIT">    11</i>
   <v name="RWIGS">     -1.00000000</v>
   <i type="int" name="NEDOS">  2000</i>
   <i name="EMIN">     10.00000000</i>
   <i name="EMAX">    -10.00000000</i>
   <i name="EFERMI">      0.00000000</i>
  </separator>
  <separator name="writing" >
   <i type="int" name="NWRITE">     2</i>
   <i type="logical" name="LWAVE"> T  </i>
   <i type="logical" name="LDOWNSAMPLE"> F  </i>
   <i type="logical" name="LCHARG"> T  </i>
   <i type="logical" name="LPARD"> F  </i>
   <i type="logical" name="LVTOT"> F  </i>
   <i type="logical" name="LVHAR"> T  </i>
   <i type="logical" name="LELF"> F  </i>
   <i type="logical" name="LOPTICS"> F  </i>
   <v name="STM">      0.00000000      0.00000000      0.00000000      0.00000000      0.00000000      0.00000000      0.00000000</v>
  </separator>
  <separator name="performance" >
   <i type="int" name="NPAR">     4</i>
   <i type="int" name="NSIM">     4</i>
   <i type="int" name="NBLK">    -1</i>
   <i type="logical" name="LPLANE"> T  </i>
   <i type="logical" name="LSCALAPACK"> T  </i>
   <i type="logical" name="LSCAAWARE"> F  </i>
   <i type="logical" name="LSCALU"> F  </i>
   <i type="logical" name="LASYNC"> F  </i>
   <i type="logical" name="LORBITALREAL"> F  </i>
  </separator>
  <separator name="miscellaneous" >
   <i type="int" name="IDIOT">     3</i>
   <i type="int" name="ISPECIAL">     0</i>
   <i type="logical" name="LMUSIC"> F  </i>
   <v name="POMASS">     30.97400000</v>
   <v name="DARWINR">      0.00000000</v>
   <v name="DARWINV">      1.00000000</v>
   <i type="logical" name="LCORR"> T  </i>
  </separator>
  <i type="logical" name="GGA_COMPAT"> T  </i>
  <i type="logical" name="LBERRY"> F  </i>
  <i type="int" name="ICORELEVEL">     1</i>
  <i type="int" name="CLNT">     1</i>
  <i type="int" name="CLN">     1</i>
  <i type="int" name="CLL">     0</i>
  <i name="CLZ">      0.00000000</i>
  <i type="logical" name="LDAU"> F  </i>
  <i type="int" name="I_CONSTRAINED_M">     0</i>
  <separator name="electronic exchange-correlation" >
   <i type="string" name="GGA">PE</i>
   <i type="int" name="VOSKOWN">     0</i>
   <i type="logical" name="LHFCALC"> F  </i>
   <i type="string" name="PRECFOCK"></i>
   <i type="logical" name="LSYMGRAD"> F  </i>
   <i type="logical" name="LHFONE"> F  </i>
   <i type="logical" name="LRHFCALC"> F  </i>
   <i type="logical" name="LTHOMAS"> F  </i>
   <i type="logical" name="LMODELHF"> F  </i>
   <i name="ENCUT4O">     -1.00000000</i>
   <i type="int" name="EXXOEP">     0</i>
   <i type="int" name="FOURORBIT">     0</i>
   <i name="AEXX">      0.00000000</i>
   <i name="HFALPHA">      0.00000000</i>
   <i name="MCALPHA">      0.00000000</i>
   <i name="ALDAX">      1.00000000</i>
   <i name="AGGAX">      1.00000000</i>
   <i name="ALDAC">      1.00000000</i>
   <i name="AGGAC">      1.00000000</i>
   <i type="int" name="NKREDX">     1</i>
   <i type="int" name="NKREDY">     1</i>
   <i type="int" name="NKREDZ">     1</i>
   <i type="logical" name="SHIFTRED"> F  </i>
   <i type="logical" name="ODDONLY"> F  </i>
   <i type="logical" name="EVENONLY"> F  </i>
   <i type="int" name="LMAXFOCK">     0</i>
   <i type="int" name="NMAXFOCKAE">     0</i>
   <i type="logical" name="LFOCKAEDFT"> F  </i>
   <i name="HFSCREEN">      0.00000000</i>
   <i name="HFSCREENC">      0.00000000</i>
   <i type="int" name="NBANDSGWLOW">     0</i>
  </separator>
  <separator name="vdW DFT" >
   <i type="logical" name="LUSE_VDW"> F  </i>
   <i name="Zab_VDW">     -0.84910000</i>
   <i name="PARAM1">      0.12340000</i>
   <i name="PARAM2">      1.00000000</i>
   <i name="PARAM3">      0.00000000</i>
  </separator>
  <separator name="model GW" >
   <i type="int" name="MODEL_GW">     0</i>
   <i name="MODEL_EPS0">     23.83979645</i>
   <i name="MODEL_ALPHA">      1.00000000</i>
  </separator>
  <separator name="linear response parameters" >
   <i type="logical" name="LEPSILON"> F  </i>
   <i type="logical" name="LRPA"> F  </i>
   <i type="logical" name="LNABLA"> F  </i>
   <i type="logical" name="LVEL"> F  </i>
   <i type="int" name="KINTER">     0</i>
   <i name="CSHIFT">      0.10000000</i>
   <i name="OMEGAMAX">     -1.00000000</i>
   <i name="DEG_THRESHOLD">      0.00200000</i>
   <i name="RTIME">     -0.10000000</i>
   <i name="WPLASMAI">      0.00000000</i>
   <v name="DFIELD">      0.00000000      0.00000000      0.00000000</v>
   <v name="WPLASMA">      0.00000000      0.00000000      0.00000000      0.00000000      0.00000000      0.00000000      0.00000000      0.00000000      0.00000000</v>
  </separator>
  <separator name="orbital magnetization" >
   <i type="logical" name="NUCIND"> F  </i>
   <v name="MAGPOS">      0.00000000      0.00000000      0.00000000</v>
   <i type="logical" name="LNICSALL"> T  </i>
   <i type="logical" name="ORBITALMAG"> F  </i>
   <i type="logical" name="LMAGBLOCH"> F  </i>
   <i type="logical" name="LCHIMAG"> F  </i>
   <i type="logical" name="LGAUGE"> T  </i>
   <i type="int" name="MAGATOM">     0</i>
   <v name="MAGDIPOL">      0.00000000      0.00000000      0.00000000</v>
   <v name="AVECCONST">      0.00000000      0.00000000      0.00000000</v>
  </separator>
  <separator name="response functions" >
   <i type="logical" name="LADDER"> F  </i>
   <i type="logical" name="LRPAFORCE"> F  </i>
   <i type="logical" name="LFXC"> F  </i>
   <i type="logical" name="LHARTREE"> T  </i>
   <i type="int" name="IBSE">     0</i>
   <v type="int" name="KPOINT">    -1     0     0     0</v>
   <i type="logical" name="LTCTE"> F  </i>
   <i type="logical" name="LTETE"> F  </i>
   <i type="logical" name="LTRIPLET"> F  </i>
   <i type="logical" name="LFXCEPS"> F  </i>
   <i type="logical" name="LFXHEG"> F  </i>
   <i type="int" name="NATURALO">     2</i>
   <i type="logical" name="L2ORDER"> F  </i>
   <i type="logical" name="LMP2LT"> F  </i>
   <i type="logical" name="LUSEW"> F  </i>
   <i name="ENCUTGW">     -2.00000000</i>
   <i name="ENCUTGWSOFT">     -2.00000000</i>
   <i name="ENCUTLF">     -1.00000000</i>
   <i type="int" name="LMAXMP2">    -1</i>
   <i name="SCISSOR">      0.00000000</i>
   <i type="int" name="NOMEGA">     0</i>
   <i type="int" name="NOMEGAR">     0</i>
   <i type="int" name="NBANDSGW">    -1</i>
   <i type="int" name="NBANDSO">    -1</i>
   <i type="int" name="NBANDSV">    -1</i>
   <i type="int" name="NELM">   200</i>
   <i type="int" name="NELMHF">     1</i>
   <i type="int" name="DIM">     3</i>
   <i type="int" name="ANTIRES">     0</i>
   <i name="OMEGAMAX">    -30.00000000</i>
   <i name="OMEGAMIN">    -30.00000000</i>
   <i name="OMEGATL">   -200.00000000</i>
   <i type="int" name="OMEGAGRID">   140</i>
   <i name="CSHIFT">     -0.10000000</i>
   <i type="logical" name="SELFENERGY"> F  </i>
   <i type="logical" name="LSPECTRAL"> F  </i>
   <i type="logical" name="LSPECTRALGW"> F  </i>
   <i type="logical" name="LSINGLES"> F  </i>
   <i type="logical" name="LFERMIGW"> F  </i>
   <i type="logical" name="ODDONLYGW"> F  </i>
   <i type="logical" name="EVENONLYGW"> F  </i>
   <i type="int" name="NKREDLFX">     1</i>
   <i type="int" name="NKREDLFY">     1</i>
   <i type="int" name="NKREDLFZ">     1</i>
   <i type="int" name="MAXMEM">  2800</i>
   <i type="int" name="TELESCOPE">     0</i>
   <i type="int" name="TAUPAR">     1</i>
   <i type="int" name="OMEGAPAR">    -1</i>
   <i name="LAMBDA">      1.00000000</i>
  </separator>
  <separator name="External order field" >
   <i name="OFIELD_KAPPA">      0.00000000</i>
   <v name="OFIELD_K">      0.00000000      0.00000000      0.00000000</v>
   <i name="OFIELD_Q6_NEAR">      0.00000000</i>
   <i name="OFIELD_Q6_FAR">      0.00000000</i>
   <i name="OFIELD_A">      0.00000000</i>
  </separator>
 </parameters>
 <atominfo>
  <atoms>      12 </atoms>
  <types>       1 </types>
  <array name="atoms" >
   <dimension dim="1">ion</dimension>
   <field type="string">element</field>
   <field type="int">atomtype</field>
   <set>
    <rc><c>P </c><c>   1</c></rc>
    <rc><c>P </c><c>   1</c></rc>
    <rc><c>P </c><c>   1</c></rc>
    <rc><c>P </c><c>   1</c></rc>
    <rc><c>P </c><c>   1</c></rc>
    <rc><c>P </c><c>   1</c></rc>
    <rc><c>P </c><c>   1</c></rc>
    <rc><c>P </c><c>   1</c></rc>
    <rc><c>P </c><c>   1</c></rc>
    <rc><c>P </c><c>   1</c></rc>
    <rc><c>P </c><c>   1</c></rc>
    <rc><c>P </c><c>   1</c></rc>
   </set>
  </array>
  <array name="atomtypes" >
   <dimension dim="1">type</dimension>
   <field type="int">atomspertype</field>
   <field type="string">element</field>
   <field>mass</field>
   <field>valence</field>
   <field type="string">pseudopotential</field>
   <set>
    <rc><c>  12</c><c>P </c><c>     30.97400000</c><c>      5.00000000</c><c>  PAW_PBE P 06Sep2000                   </c></rc>
   </set>
  </array>
 </atominfo>
 <structure name="initialpos" >
  <crystal>
   <varray name="basis" >
    <v>       3.34288600       0.00000000       0.00000000 </v>
    <v>       0.00000000      32.60240900       0.00000000 </v>
    <v>       0.00000000       0.00000000       4.37483100 </v>
   </varray>
   <i name="volume">    476.79592902 </i>
   <varray name="rec_basis" >
    <v>       0.29914272       0.00000000       0.00000000 </v>
    <v>       0.00000000       0.03067258       0.00000000 </v>
    <v>       0.00000000       0.00000000       0.22858026 </v>
   </varray>
  </crystal>
  <varray name="positions" >
   <v>       0.00000000       0.30672600       0.91892400 </v>
   <v>       0.50000000       0.30672600       0.58107600 </v>
   <v>       0.00000000       0.37246700       0.08107600 </v>
   <v>       0.50000000       0.37246700       0.41892400 </v>
   <v>       0.50000000       0.46712900       0.91892400 </v>
   <v>       0.00000000       0.46712900       0.58107600 </v>
   <v>       0.50000000       0.53287100       0.08107600 </v>
   <v>       0.00000000       0.53287100       0.41892400 </v>
   <v>       0.00000000       0.62753300       0.91892400 </v>
   <v>       0.50000000       0.62753300       0.58107600 </v>
   <v>       0.00000000       0.69327400       0.08107600 </v>
   <v>       0.50000000       0.69327400       0.41892400 </v>
  </varray>
 </structure>
 <calculation>
  <scstep>
   <time name="dav">    0.86    0.86</time>
   <time name="total">    0.97    0.99</time>
   <energy>
    <i name="alphaZ">     30.28014394 </i>
    <i name="ewald">  14973.24208224 </i>
    <i name="hartreedc"> -16928.93300519 </i>
    <i name="XCdc">     40.33410220 </i>
    <i name="pawpsdc">   1677.12035881 </i>
    <i name="pawaedc">  -1579.18296132 </i>
    <i name="eentropy">     -0.00071048 </i>
    <i name="bandstr">     81.48981299 </i>
    <i name="atom">   2112.50969837 </i>
    <i name="e_fr_energy">    406.85952155 </i>
    <i name="e_wo_entrp">    406.86023203 </i>
    <i name="e_0_energy">    406.85987679 </i>
   </energy>
  </scstep>
  <scstep>
   <time name="dav">    1.11    1.11</time>
   <time name="total">    1.11    1.12</time>
   <energy>
    <i name="e_fr_energy">    -17.49493635 </i>
    <i name="e_wo_entrp">    -17.49429648 </i>
    <i name="e_0_energy">    -17.49461641 </i>
   </energy>
  </scstep>
  <scstep>
   <time name="dav">    0.97    0.97</time>
   <time name="total">    0.97    0.97</time>
   <energy>
    <i name="e_fr_energy">    -63.03745414 </i>
    <i name="e_wo_entrp">    -63.03745414 </i>
    <i name="e_0_energy">    -63.03745414 </i>
   </energy>
  </scstep>
  <scstep>
   <time name="dav">    1.15    1.16</time>
   <time name="total">    1.15    1.16</time>
   <energy>
    <i name="e_fr_energy">    -64.75873505 </i>
    <i name="e_wo_entrp">    -64.75873505 </i>
    <i name="e_0_energy">    -64.75873505 </i>
   </energy>
  </scstep>
  <scstep>
   <time name="dav">    1.19    1.19</time>
   <time name="total">    1.24    1.24</time>
   <energy>
    <i name="e_fr_energy">    -64.81529656 </i>
    <i name="e_wo_entrp">    -64.81529656 </i>
    <i name="e_0_energy">    -64.81529656 </i>
   </energy>
  </scstep>
  <scstep>
   <time name="dav">    1.05    1.05</time>
   <time name="total">    1.20    1.20</time>
   <energy>
    <i name="e_fr_energy">    -64.49051908 </i>
    <i name="e_wo_entrp">    -64.49051908 </i>
    <i name="e_0_energy">    -64.49051908 </i>
   </energy>
  </scstep>
  <scstep>
   <time name="dav">    1.01    1.01</time>
   <time name="total">    1.17    1.17</time>
   <energy>
    <i name="e_fr_energy">    -64.34126134 </i>
    <i name="e_wo_entrp">    -64.34126111 </i>
    <i name="e_0_energy">    -64.34126123 </i>
   </energy>
  </scstep>
  <scstep>
   <time name="dav">    1.04    1.06</time>
   <time name="total">    1.20    1.21</time>
   <energy>
    <i name="e_fr_energy">    -64.34097955 </i>
    <i name="e_wo_entrp">    -64.34097948 </i>
    <i name="e_0_energy">    -64.34097952 </i>
   </energy>
  </scstep>
  <scstep>
   <time name="dav">    1.12    1.12</time>
   <time name="total">    1.27    1.28</time>
   <energy>
    <i name="e_fr_energy">    -64.34093957 </i>
    <i name="e_wo_entrp">    -64.34093950 </i>
    <i name="e_0_energy">    -64.34093953 </i>
   </energy>
  </scstep>
  <scstep>
   <time name="dav">    0.98    0.98</time>
   <time name="total">    1.13    1.13</time>
   <energy>
    <i name="e_fr_energy">    -64.34068060 </i>
    <i name="e_wo_entrp">    -64.34068056 </i>
    <i name="e_0_energy">    -64.34068058 </i>
   </energy>
  </scstep>
  <scstep>
   <time name="dav">    1.02    1.02</time>
   <time name="total">    1.17    1.17</time>
   <energy>
    <i name="e_fr_energy">    -64.34041507 </i>
    <i name="e_wo_entrp">    -64.34041503 </i>
    <i name="e_0_energy">    -64.34041505 </i>
   </energy>
  </scstep>
  <scstep>
   <time name="dav">    1.12    1.12</time>
   <time name="total">    1.27    1.27</time>
   <energy>
    <i name="e_fr_energy">    -64.34049744 </i>
    <i name="e_wo_entrp">    -64.34049739 </i>
    <i name="e_0_energy">    -64.34049742 </i>
   </energy>
  </scstep>
  <scstep>
   <time name="dav">    0.93    0.94</time>
   <time name="total">    1.09    1.09</time>
   <energy>
    <i name="e_fr_energy">    -64.34070963 </i>
    <i name="e_wo_entrp">    -64.34070957 </i>
    <i name="e_0_energy">    -64.34070960 </i>
   </energy>
  </scstep>
  <scstep>
   <time name="dav">    0.91    0.91</time>
   <time name="total">    1.08    1.08</time>
   <energy>
    <i name="e_fr_energy">    -64.34087555 </i>
    <i name="e_wo_entrp">    -64.34087548 </i>
    <i name="e_0_energy">    -64.34087551 </i>
   </energy>
  </scstep>
  <scstep>
   <time name="dav">    0.82    0.82</time>
   <time name="total">    0.98    0.98</time>
   <energy>
    <i name="e_fr_energy">    -64.34091167 </i>
    <i name="e_wo_entrp">    -64.34091160 </i>
    <i name="e_0_energy">    -64.34091164 </i>
   </energy>
  </scstep>
  <scstep>
   <time name="dav">    0.88    0.88</time>
   <time name="total">    1.03    1.03</time>
   <energy>
    <i name="e_fr_energy">    -64.34116828 </i>
    <i name="e_wo_entrp">    -64.34116822 </i>
    <i name="e_0_energy">    -64.34116825 </i>
   </energy>
  </scstep>
  <scstep>
   <time name="dav">    0.77    0.77</time>
   <time name="total">    0.92    0.92</time>
   <energy>
    <i name="e_fr_energy">    -64.34118310 </i>
    <i name="e_wo_entrp">    -64.34118303 </i>
    <i name="e_0_energy">    -64.34118307 </i>
   </energy>
  </scstep>
  <scstep>
   <time name="dav">    0.74    0.74</time>
   <time name="total">    0.92    0.92</time>
   <energy>
    <i name="alphaZ">     30.28014394 </i>
    <i name="ewald">  14973.24208224 </i>
    <i name="hartreedc"> -16968.17578958 </i>
    <i name="XCdc">     43.14203723 </i>
    <i name="pawpsdc">   6274.31772095 </i>
    <i name="pawaedc">  -6177.29820716 </i>
    <i name="eentropy">     -0.00000007 </i>
    <i name="bandstr">   -352.35887335 </i>
    <i name="atom">   2112.50969837 </i>
    <i name="e_fr_energy">    -64.34118743 </i>
    <i name="e_wo_entrp">    -64.34118737 </i>
    <i name="e_0_energy">    -64.34118740 </i>
   </energy>
  </scstep>
  <structure>
   <crystal>
    <varray name="basis" >
     <v>       3.34288600       0.00000000       0.00000000 </v>
     <v>       0.00000000      32.60240900       0.00000000 </v>
     <v>       0.00000000       0.00000000       4.37483100 </v>
    </varray>
    <i name="volume">    476.79592902 </i>
    <varray name="rec_basis" >
     <v>       0.29914272       0.00000000       0.00000000 </v>
     <v>       0.00000000       0.03067258       0.00000000 </v>
     <v>       0.00000000       0.00000000       0.22858026 </v>
    </varray>
   </crystal>
   <varray name="positions" >
    <v>       0.00000000       0.30672600       0.91892400 </v>
    <v>       0.50000000       0.30672600       0.58107600 </v>
    <v>       0.00000000       0.37246700       0.08107600 </v>
    <v>       0.50000000       0.37246700       0.41892400 </v>
    <v>       0.50000000       0.46712900       0.91892400 </v>
    <v>       0.00000000       0.46712900       0.58107600 </v>
    <v>       0.50000000       0.53287100       0.08107600 </v>
    <v>       0.00000000       0.53287100       0.41892400 </v>
    <v>       0.00000000       0.62753300       0.91892400 </v>
    <v>       0.50000000       0.62753300       0.58107600 </v>
    <v>       0.00000000       0.69327400       0.08107600 </v>
    <v>       0.50000000       0.69327400       0.41892400 </v>
   </varray>
  </structure>
  <varray name="forces" >
   <v>       0.00000000       0.08161881      -0.03859858 </v>
   <v>       0.00000000       0.08161881       0.03859858 </v>
   <v>       0.00000000      -0.07756437      -0.02130341 </v>
   <v>       0.00000000      -0.07756437       0.02130341 </v>
   <v>       0.00000000       0.03794202       0.00245365 </v>
   <v>       0.00000000       0.03794202      -0.00245365 </v>
   <v>       0.00000000      -0.03794202      -0.00245365 </v>
   <v>       0.00000000      -0.03794202       0.00245365 </v>
   <v>       0.00000000       0.07756437       0.02130341 </v>
   <v>       0.00000000       0.07756437      -0.02130341 </v>
   <v>       0.00000000      -0.08161881       0.03859858 </v>
   <v>       0.00000000      -0.08161881      -0.03859858 </v>
  </varray>
  <varray name="stress" >
   <v>       1.00197563       0.00000000       0.00000000 </v>
   <v>       0.00000000      -3.15302980       0.00000000 </v>
   <v>       0.00000000       0.00000000       4.19760467 </v>
  </varray>
  <energy>
   <i name="e_fr_energy">    -66.51512695 </i>
   <i name="e_wo_entrp">    -66.51512692 </i>
   <i name="e_0_energy">     -0.00000007 </i>
  </energy>
  <time name="totalsc">   22.97   23.09</time>
  <eigenvalues>
   <array>
    <dimension dim="1">band</dimension>
    <dimension dim="2">kpoint</dimension>
    <dimension dim="3">spin</dimension>
    <field>eigene</field>
    <field>occ</field>
    <set>
     <set comment="spin 1">
      <set comment="kpoint 1">
       <r>  -14.8547    1.0000 </r>
       <r>  -14.7344    1.0000 </r>
       <r>  -14.6657    1.0000 </r>
       <r>  -12.3737    1.0000 </r>
       <r>  -12.1279    1.0000 </r>
       <r>  -11.9481    1.0000 </r>
       <r>   -8.6066    1.0000 </r>
       <r>   -8.5224    1.0000 </r>
       <r>   -8.4922    1.0000 </r>
       <r>   -5.9246    1.0000 </r>
       <r>   -5.5458    1.0000 </r>
       <r>   -5.1275    1.0000 </r>
       <r>   -4.5054    1.0000 </r>
       <r>   -4.5053    1.0000 </r>
       <r>   -4.1877    1.0000 </r>
       <r>   -4.1435    1.0000 </r>
       <r>   -3.9961    1.0000 </r>
       <r>   -3.9220    1.0000 </r>
       <r>   -3.3942    1.0000 </r>
       <r>   -3.2934    1.0000 </r>
       <r>   -3.2436    1.0000 </r>
       <r>   -1.8803    1.0000 </r>
       <r>   -1.7370    1.0000 </r>
       <r>   -1.6251    1.0000 </r>
       <r>   -1.5899    1.0000 </r>
       <r>   -1.5049    1.0000 </r>
       <r>   -1.1084    1.0000 </r>
       <r>   -0.2501    1.0000 </r>
       <r>    0.3537    1.0000 </r>
       <r>    0.9091    1.0000 </r>
       <r>    0.9687    0.0000 </r>
       <r>    1.4964    0.0000 </r>
       <r>    1.5223    0.0000 </r>
       <r>    1.6968    0.0000 </r>
       <r>    1.7045    0.0000 </r>
       <r>    1.8603    0.0000 </r>
       <r>    2.7296    0.0000 </r>
       <r>    2.9001    0.0000 </r>
       <r>    2.9710    0.0000 </r>
       <r>    3.6947    0.0000 </r>
      </set>
      <set comment="kpoint 2">
       <r>  -14.5312    1.0000 </r>
       <r>  -14.4121    1.0000 </r>
       <r>  -14.3446    1.0000 </r>
       <r>  -12.0370    1.0000 </r>
       <r>  -11.7926    1.0000 </r>
       <r>  -11.6139    1.0000 </r>
       <r>   -8.8993    1.0000 </r>
       <r>   -8.8382    1.0000 </r>
       <r>   -8.8321    1.0000 </r>
       <r>   -5.6516    1.0000 </r>
       <r>   -5.2804    1.0000 </r>
       <r>   -4.9727    1.0000 </r>
       <r>   -4.8916    1.0000 </r>
       <r>   -4.8852    1.0000 </r>
       <r>   -4.8536    1.0000 </r>
       <r>   -4.4289    1.0000 </r>
       <r>   -4.3556    1.0000 </r>
       <r>   -4.3448    1.0000 </r>
       <r>   -4.2193    1.0000 </r>
       <r>   -3.8748    1.0000 </r>
       <r>   -3.7306    1.0000 </r>
       <r>   -2.6620    1.0000 </r>
       <r>   -2.5116    1.0000 </r>
       <r>   -2.3464    1.0000 </r>
       <r>   -1.7422    1.0000 </r>
       <r>   -1.4709    1.0000 </r>
       <r>   -0.9684    1.0000 </r>
       <r>   -0.2141    1.0000 </r>
       <r>    0.1863    1.0000 </r>
       <r>    0.4566    1.0000 </r>
       <r>    1.2520    0.0000 </r>
       <r>    1.6566    0.0000 </r>
       <r>    1.8810    0.0000 </r>
       <r>    2.3385    0.0000 </r>
       <r>    2.5505    0.0000 </r>
       <r>    2.5749    0.0000 </r>
       <r>    3.7493    0.0000 </r>
       <r>    3.8749    0.0000 </r>
       <r>    3.9795    0.0000 </r>
       <r>    4.2528    0.0000 </r>
      </set>
      <set comment="kpoint 3">
       <r>  -13.5781    1.0000 </r>
       <r>  -13.4631    1.0000 </r>
       <r>  -13.4001    1.0000 </r>
       <r>  -11.0354    1.0000 </r>
       <r>  -10.7957    1.0000 </r>
       <r>  -10.6207    1.0000 </r>
       <r>  -10.2418    1.0000 </r>
       <r>  -10.1625    1.0000 </r>
       <r>  -10.1375    1.0000 </r>
       <r>   -7.2215    1.0000 </r>
       <r>   -7.0252    1.0000 </r>
       <r>   -6.8871    1.0000 </r>
       <r>   -4.9309    1.0000 </r>
       <r>   -4.9060    1.0000 </r>
       <r>   -4.8498    1.0000 </r>
       <r>   -4.8406    1.0000 </r>
       <r>   -4.6055    1.0000 </r>
       <r>   -4.3161    1.0000 </r>
       <r>   -3.4264    1.0000 </r>
       <r>   -3.1571    1.0000 </r>
       <r>   -3.0341    1.0000 </r>
       <r>   -2.6860    1.0000 </r>
       <r>   -2.3964    1.0000 </r>
       <r>   -2.1621    1.0000 </r>
       <r>   -1.7911    1.0000 </r>
       <r>   -1.5220    1.0000 </r>
       <r>   -1.1904    1.0000 </r>
       <r>   -0.8935    1.0000 </r>
       <r>   -0.7537    1.0000 </r>
       <r>   -0.6903    1.0000 </r>
       <r>    1.1107    0.0000 </r>
       <r>    1.1721    0.0000 </r>
       <r>    1.4338    0.0000 </r>
       <r>    2.0730    0.0000 </r>
       <r>    2.2847    0.0000 </r>
       <r>    2.6022    0.0000 </r>
       <r>    2.6454    0.0000 </r>
       <r>    2.6614    0.0000 </r>
       <r>    2.6688    0.0000 </r>
       <r>    2.9546    0.0000 </r>
      </set>
      <set comment="kpoint 4">
       <r>  -12.0675    1.0000 </r>
       <r>  -12.0675    1.0000 </r>
       <r>  -11.9626    1.0000 </r>
       <r>  -11.9626    1.0000 </r>
       <r>  -11.9102    1.0000 </r>
       <r>  -11.9102    1.0000 </r>
       <r>   -9.4001    1.0000 </r>
       <r>   -9.4001    1.0000 </r>
       <r>   -9.1714    1.0000 </r>
       <r>   -9.1714    1.0000 </r>
       <r>   -9.0052    1.0000 </r>
       <r>   -9.0052    1.0000 </r>
       <r>   -4.4699    1.0000 </r>
       <r>   -4.4699    1.0000 </r>
       <r>   -4.3355    1.0000 </r>
       <r>   -4.3355    1.0000 </r>
       <r>   -4.2899    1.0000 </r>
       <r>   -4.2899    1.0000 </r>
       <r>   -2.4677    1.0000 </r>
       <r>   -2.4677    1.0000 </r>
       <r>   -2.3940    1.0000 </r>
       <r>   -2.3940    1.0000 </r>
       <r>   -2.3936    1.0000 </r>
       <r>   -2.3936    1.0000 </r>
       <r>   -2.0109    1.0000 </r>
       <r>   -2.0109    1.0000 </r>
       <r>   -1.7402    1.0000 </r>
       <r>   -1.7402    1.0000 </r>
       <r>   -1.4881    1.0000 </r>
       <r>   -1.4881    1.0000 </r>
       <r>    1.6187    0.0000 </r>
       <r>    1.6187    0.0000 </r>
       <r>    1.6313    0.0000 </r>
       <r>    1.6313    0.0000 </r>
       <r>    1.7132    0.0000 </r>
       <r>    1.7132    0.0000 </r>
       <r>    2.1546    0.0000 </r>
       <r>    2.1552    0.0000 </r>
       <r>    2.1911    0.0000 </r>
       <r>    2.1914    0.0000 </r>
      </set>
      <set comment="kpoint 5">
       <r>  -14.5032    1.0000 </r>
       <r>  -14.3902    1.0000 </r>
       <r>  -14.3292    1.0000 </r>
       <r>  -12.5961    1.0000 </r>
       <r>  -12.4622    1.0000 </r>
       <r>  -12.4016    1.0000 </r>
       <r>   -9.0059    1.0000 </r>
       <r>   -8.8491    1.0000 </r>
       <r>   -8.7266    1.0000 </r>
       <r>   -6.9122    1.0000 </r>
       <r>   -6.6393    1.0000 </r>
       <r>   -6.4714    1.0000 </r>
       <r>   -4.5490    1.0000 </r>
       <r>   -4.0381    1.0000 </r>
       <r>   -3.3761    1.0000 </r>
       <r>   -3.1170    1.0000 </r>
       <r>   -3.0638    1.0000 </r>
       <r>   -3.0246    1.0000 </r>
       <r>   -2.9838    1.0000 </r>
       <r>   -2.7188    1.0000 </r>
       <r>   -2.7179    1.0000 </r>
       <r>   -1.8654    1.0000 </r>
       <r>   -1.7648    1.0000 </r>
       <r>   -1.7338    1.0000 </r>
       <r>   -1.7262    1.0000 </r>
       <r>   -1.0751    1.0000 </r>
       <r>   -0.4263    1.0000 </r>
       <r>   -0.2676    1.0000 </r>
       <r>   -0.2050    1.0000 </r>
       <r>   -0.0275    1.0000 </r>
       <r>    1.6791    0.0000 </r>
       <r>    2.0056    0.0000 </r>
       <r>    2.1136    0.0000 </r>
       <r>    2.2068    0.0000 </r>
       <r>    2.2568    0.0000 </r>
       <r>    2.2601    0.0000 </r>
       <r>    2.3677    0.0000 </r>
       <r>    2.7082    0.0000 </r>
       <r>    3.2540    0.0000 </r>
       <r>    3.3189    0.0000 </r>
      </set>
      <set comment="kpoint 6">
       <r>  -14.1844    1.0000 </r>
       <r>  -14.0726    1.0000 </r>
       <r>  -14.0129    1.0000 </r>
       <r>  -12.2802    1.0000 </r>
       <r>  -12.1507    1.0000 </r>
       <r>  -12.0942    1.0000 </r>
       <r>   -9.0396    1.0000 </r>
       <r>   -8.8873    1.0000 </r>
       <r>   -8.7741    1.0000 </r>
       <r>   -6.7962    1.0000 </r>
       <r>   -6.5666    1.0000 </r>
       <r>   -6.4199    1.0000 </r>
       <r>   -4.9862    1.0000 </r>
       <r>   -4.8455    1.0000 </r>
       <r>   -4.7166    1.0000 </r>
       <r>   -4.5118    1.0000 </r>
       <r>   -4.0379    1.0000 </r>
       <r>   -3.7239    1.0000 </r>
       <r>   -3.3133    1.0000 </r>
       <r>   -3.1979    1.0000 </r>
       <r>   -2.9144    1.0000 </r>
       <r>   -2.3360    1.0000 </r>
       <r>   -2.1652    1.0000 </r>
       <r>   -2.1438    1.0000 </r>
       <r>   -1.4993    1.0000 </r>
       <r>   -0.9518    1.0000 </r>
       <r>   -0.8612    1.0000 </r>
       <r>   -0.7310    1.0000 </r>
       <r>   -0.4607    1.0000 </r>
       <r>   -0.4125    1.0000 </r>
       <r>    2.0275    0.0000 </r>
       <r>    2.3124    0.0000 </r>
       <r>    2.5877    0.0000 </r>
       <r>    2.8629    0.0000 </r>
       <r>    3.0133    0.0000 </r>
       <r>    3.0652    0.0000 </r>
       <r>    3.3732    0.0000 </r>
       <r>    3.4976    0.0000 </r>
       <r>    3.6077    0.0000 </r>
       <r>    4.3373    0.0000 </r>
      </set>
      <set comment="kpoint 7">
       <r>  -13.2534    1.0000 </r>
       <r>  -13.1462    1.0000 </r>
       <r>  -13.0914    1.0000 </r>
       <r>  -11.4368    1.0000 </r>
       <r>  -11.3344    1.0000 </r>
       <r>  -11.3015    1.0000 </r>
       <r>   -9.7502    1.0000 </r>
       <r>   -9.5900    1.0000 </r>
       <r>   -9.4805    1.0000 </r>
       <r>   -7.5241    1.0000 </r>
       <r>   -7.4370    1.0000 </r>
       <r>   -7.4164    1.0000 </r>
       <r>   -5.8330    1.0000 </r>
       <r>   -5.6652    1.0000 </r>
       <r>   -5.5320    1.0000 </r>
       <r>   -4.7975    1.0000 </r>
       <r>   -4.7532    1.0000 </r>
       <r>   -4.6781    1.0000 </r>
       <r>   -3.3918    1.0000 </r>
       <r>   -3.3110    1.0000 </r>
       <r>   -3.1776    1.0000 </r>
       <r>   -2.5127    1.0000 </r>
       <r>   -2.3685    1.0000 </r>
       <r>   -2.3640    1.0000 </r>
       <r>   -2.2361    1.0000 </r>
       <r>   -1.8480    1.0000 </r>
       <r>   -1.3304    1.0000 </r>
       <r>   -0.9601    1.0000 </r>
       <r>   -0.6601    1.0000 </r>
       <r>   -0.6242    1.0000 </r>
       <r>    1.7034    0.0000 </r>
       <r>    1.8315    0.0000 </r>
       <r>    2.0264    0.0000 </r>
       <r>    2.5145    0.0000 </r>
       <r>    2.7049    0.0000 </r>
       <r>    2.9610    0.0000 </r>
       <r>    3.1521    0.0000 </r>
       <r>    3.3300    0.0000 </r>
       <r>    3.3719    0.0000 </r>
       <r>    3.8757    0.0000 </r>
      </set>
      <set comment="kpoint 8">
       <r>  -11.8545    1.0000 </r>
       <r>  -11.8545    1.0000 </r>
       <r>  -11.7626    1.0000 </r>
       <r>  -11.7626    1.0000 </r>
       <r>  -11.7243    1.0000 </r>
       <r>  -11.7243    1.0000 </r>
       <r>   -9.4309    1.0000 </r>
       <r>   -9.4309    1.0000 </r>
       <r>   -9.2731    1.0000 </r>
       <r>   -9.2731    1.0000 </r>
       <r>   -9.1819    1.0000 </r>
       <r>   -9.1819    1.0000 </r>
       <r>   -5.0177    1.0000 </r>
       <r>   -5.0177    1.0000 </r>
       <r>   -4.8280    1.0000 </r>
       <r>   -4.8280    1.0000 </r>
       <r>   -4.6764    1.0000 </r>
       <r>   -4.6764    1.0000 </r>
       <r>   -3.6867    1.0000 </r>
       <r>   -3.6867    1.0000 </r>
       <r>   -3.4422    1.0000 </r>
       <r>   -3.4422    1.0000 </r>
       <r>   -3.3092    1.0000 </r>
       <r>   -3.3092    1.0000 </r>
       <r>   -1.5495    1.0000 </r>
       <r>   -1.5495    1.0000 </r>
       <r>   -1.2059    1.0000 </r>
       <r>   -1.2059    1.0000 </r>
       <r>   -0.9102    1.0000 </r>
       <r>   -0.9102    1.0000 </r>
       <r>    2.0051    0.0000 </r>
       <r>    2.0051    0.0000 </r>
       <r>    2.3080    0.0000 </r>
       <r>    2.3080    0.0000 </r>
       <r>    2.4547    0.0000 </r>
       <r>    2.4547    0.0000 </r>
       <r>    3.1796    0.0000 </r>
       <r>    3.1796    0.0000 </r>
       <r>    3.4036    0.0000 </r>
       <r>    3.4036    0.0000 </r>
      </set>
      <set comment="kpoint 9">
       <r>  -13.5469    1.0000 </r>
       <r>  -13.5469    1.0000 </r>
       <r>  -13.4771    1.0000 </r>
       <r>  -13.4771    1.0000 </r>
       <r>  -13.4308    1.0000 </r>
       <r>  -13.4308    1.0000 </r>
       <r>   -8.5713    1.0000 </r>
       <r>   -8.5713    1.0000 </r>
       <r>   -8.2547    1.0000 </r>
       <r>   -8.2547    1.0000 </r>
       <r>   -7.9811    1.0000 </r>
       <r>   -7.9811    1.0000 </r>
       <r>   -3.5914    1.0000 </r>
       <r>   -3.5914    1.0000 </r>
       <r>   -2.8285    1.0000 </r>
       <r>   -2.8285    1.0000 </r>
       <r>   -2.4230    1.0000 </r>
       <r>   -2.4230    1.0000 </r>
       <r>   -2.3791    1.0000 </r>
       <r>   -2.3791    1.0000 </r>
       <r>   -2.3339    1.0000 </r>
       <r>   -2.3339    1.0000 </r>
       <r>   -2.0236    1.0000 </r>
       <r>   -2.0236    1.0000 </r>
       <r>   -0.7280    1.0000 </r>
       <r>   -0.7280    1.0000 </r>
       <r>   -0.5201    1.0000 </r>
       <r>   -0.5201    1.0000 </r>
       <r>   -0.4477    1.0000 </r>
       <r>   -0.4477    1.0000 </r>
       <r>    2.1897    0.0000 </r>
       <r>    2.1897    0.0000 </r>
       <r>    2.2332    0.0000 </r>
       <r>    2.2332    0.0000 </r>
       <r>    2.2856    0.0000 </r>
       <r>    2.2856    0.0000 </r>
       <r>    3.4175    0.0000 </r>
       <r>    3.4199    0.0000 </r>
       <r>    3.5670    0.0000 </r>
       <r>    3.5917    0.0000 </r>
      </set>
      <set comment="kpoint 10">
       <r>  -13.2408    1.0000 </r>
       <r>  -13.2408    1.0000 </r>
       <r>  -13.1713    1.0000 </r>
       <r>  -13.1713    1.0000 </r>
       <r>  -13.1259    1.0000 </r>
       <r>  -13.1259    1.0000 </r>
       <r>   -8.4265    1.0000 </r>
       <r>   -8.4265    1.0000 </r>
       <r>   -8.1362    1.0000 </r>
       <r>   -8.1362    1.0000 </r>
       <r>   -7.8956    1.0000 </r>
       <r>   -7.8956    1.0000 </r>
       <r>   -4.3702    1.0000 </r>
       <r>   -4.3702    1.0000 </r>
       <r>   -4.2641    1.0000 </r>
       <r>   -4.2641    1.0000 </r>
       <r>   -4.1660    1.0000 </r>
       <r>   -4.1660    1.0000 </r>
       <r>   -3.3513    1.0000 </r>
       <r>   -3.3513    1.0000 </r>
       <r>   -2.6380    1.0000 </r>
       <r>   -2.6380    1.0000 </r>
       <r>   -1.9682    1.0000 </r>
       <r>   -1.9682    1.0000 </r>
       <r>   -0.8122    1.0000 </r>
       <r>   -0.8122    1.0000 </r>
       <r>   -0.6452    1.0000 </r>
       <r>   -0.6452    1.0000 </r>
       <r>   -0.4918    1.0000 </r>
       <r>   -0.4918    1.0000 </r>
       <r>    2.8448    0.0000 </r>
       <r>    2.8448    0.0000 </r>
       <r>    2.9829    0.0000 </r>
       <r>    2.9829    0.0000 </r>
       <r>    3.0963    0.0000 </r>
       <r>    3.0963    0.0000 </r>
       <r>    3.5134    0.0000 </r>
       <r>    3.5134    0.0000 </r>
       <r>    3.9742    0.0000 </r>
       <r>    3.9742    0.0000 </r>
      </set>
      <set comment="kpoint 11">
       <r>  -12.3829    1.0000 </r>
       <r>  -12.3829    1.0000 </r>
       <r>  -12.3154    1.0000 </r>
       <r>  -12.3154    1.0000 </r>
       <r>  -12.2754    1.0000 </r>
       <r>  -12.2754    1.0000 </r>
       <r>   -8.6636    1.0000 </r>
       <r>   -8.6636    1.0000 </r>
       <r>   -8.5140    1.0000 </r>
       <r>   -8.5140    1.0000 </r>
       <r>   -8.4282    1.0000 </r>
       <r>   -8.4282    1.0000 </r>
       <r>   -5.7961    1.0000 </r>
       <r>   -5.7961    1.0000 </r>
       <r>   -5.5448    1.0000 </r>
       <r>   -5.5448    1.0000 </r>
       <r>   -5.3202    1.0000 </r>
       <r>   -5.3202    1.0000 </r>
       <r>   -3.4355    1.0000 </r>
       <r>   -3.4355    1.0000 </r>
       <r>   -3.0690    1.0000 </r>
       <r>   -3.0690    1.0000 </r>
       <r>   -2.7859    1.0000 </r>
       <r>   -2.7859    1.0000 </r>
       <r>   -1.8733    1.0000 </r>
       <r>   -1.8733    1.0000 </r>
       <r>   -1.3277    1.0000 </r>
       <r>   -1.3277    1.0000 </r>
       <r>   -0.8287    1.0000 </r>
       <r>   -0.8287    1.0000 </r>
       <r>    2.6918    0.0000 </r>
       <r>    2.6918    0.0000 </r>
       <r>    3.2785    0.0000 </r>
       <r>    3.2785    0.0000 </r>
       <r>    3.9561    0.0000 </r>
       <r>    3.9570    0.0000 </r>
       <r>    3.9831    0.0000 </r>
       <r>    3.9845    0.0000 </r>
       <r>    4.0926    0.0000 </r>
       <r>    4.1338    0.0000 </r>
      </set>
      <set comment="kpoint 12">
       <r>  -11.5664    1.0000 </r>
       <r>  -11.5664    1.0000 </r>
       <r>  -11.5106    1.0000 </r>
       <r>  -11.5106    1.0000 </r>
       <r>  -11.5104    1.0000 </r>
       <r>  -11.5104    1.0000 </r>
       <r>   -9.5297    1.0000 </r>
       <r>   -9.5297    1.0000 </r>
       <r>   -9.4664    1.0000 </r>
       <r>   -9.4664    1.0000 </r>
       <r>   -9.4651    1.0000 </r>
       <r>   -9.4651    1.0000 </r>
       <r>   -4.9611    1.0000 </r>
       <r>   -4.9611    1.0000 </r>
       <r>   -4.9464    1.0000 </r>
       <r>   -4.9464    1.0000 </r>
       <r>   -4.6714    1.0000 </r>
       <r>   -4.6714    1.0000 </r>
       <r>   -4.6178    1.0000 </r>
       <r>   -4.6178    1.0000 </r>
       <r>   -4.3756    1.0000 </r>
       <r>   -4.3756    1.0000 </r>
       <r>   -4.3749    1.0000 </r>
       <r>   -4.3749    1.0000 </r>
       <r>   -1.2347    1.0000 </r>
       <r>   -1.2347    1.0000 </r>
       <r>   -1.1806    1.0000 </r>
       <r>   -1.1806    1.0000 </r>
       <r>   -1.0522    1.0000 </r>
       <r>   -1.0522    1.0000 </r>
       <r>    2.6255    0.0000 </r>
       <r>    2.6255    0.0000 </r>
       <r>    2.7585    0.0000 </r>
       <r>    2.7585    0.0000 </r>
       <r>    2.8971    0.0000 </r>
       <r>    2.8971    0.0000 </r>
       <r>    4.8172    0.0000 </r>
       <r>    4.8278    0.0000 </r>
       <r>    4.8647    0.0000 </r>
       <r>    4.8678    0.0000 </r>
      </set>
     </set>
    </set>
   </array>
  </eigenvalues>
  <separator name="orbital magnetization" >
   <v name="MAGDIPOLOUT">      0.00000000      0.00000000      0.00000000</v>
  </separator>
  <dos>
   <i name="efermi">      0.93893416 </i>
   <total>
    <array>
     <dimension dim="1">gridpoints</dimension>
     <dimension dim="2">spin</dimension>
     <field>energy</field>
     <field>total</field>
     <field>integrated</field>
     <set>
      <set comment="spin 1">
       <r>   -15.8408     0.0000     0.0000 </r>
       <r>   -15.8300     0.0000     0.0000 </r>
       <r>   -15.8191     0.0000     0.0000 </r>
       <r>   -15.8082     0.0000     0.0000 </r>
       <r>   -15.7974     0.0000     0.0000 </r>
       <r>   -15.7865     0.0000     0.0000 </r>
       <r>   -15.7757     0.0000     0.0000 </r>
       <r>   -15.7648     0.0000     0.0000 </r>
       <r>   -15.7540     0.0000     0.0000 </r>
       <r>   -15.7431     0.0000     0.0000 </r>
       <r>   -15.7323     0.0000     0.0000 </r>
       <r>   -15.7214     0.0000     0.0000 </r>
       <r>   -15.7106     0.0000     0.0000 </r>
       <r>   -15.6997     0.0000     0.0000 </r>
       <r>   -15.6889     0.0000     0.0000 </r>
       <r>   -15.6780     0.0000     0.0000 </r>
       <r>   -15.6672     0.0000     0.0000 </r>
       <r>   -15.6563     0.0000     0.0000 </r>
       <r>   -15.6455     0.0000     0.0000 </r>
       <r>   -15.6346     0.0000     0.0000 </r>
       <r>   -15.6238     0.0000     0.0000 </r>
       <r>   -15.6129     0.0000     0.0000 </r>
       <r>   -15.6020     0.0000     0.0000 </r>
       <r>   -15.5912     0.0000     0.0000 </r>
       <r>   -15.5803     0.0000     0.0000 </r>
       <r>   -15.5695     0.0000     0.0000 </r>
       <r>   -15.5586     0.0000     0.0000 </r>
       <r>   -15.5478     0.0000     0.0000 </r>
       <r>   -15.5369     0.0000     0.0000 </r>
       <r>   -15.5261     0.0000     0.0000 </r>
       <r>   -15.5152     0.0000     0.0000 </r>
       <r>   -15.5044     0.0000     0.0000 </r>
       <r>   -15.4935     0.0000     0.0000 </r>
       <r>   -15.4827     0.0000     0.0000 </r>
       <r>   -15.4718     0.0000     0.0000 </r>
       <r>   -15.4610     0.0000     0.0000 </r>
       <r>   -15.4501     0.0000     0.0000 </r>
       <r>   -15.4393     0.0000     0.0000 </r>
       <r>   -15.4284     0.0000     0.0000 </r>
       <r>   -15.4175     0.0000     0.0000 </r>
       <r>   -15.4067     0.0000     0.0000 </r>
       <r>   -15.3958     0.0000     0.0000 </r>
       <r>   -15.3850     0.0000     0.0000 </r>
       <r>   -15.3741     0.0000     0.0000 </r>
       <r>   -15.3633     0.0000     0.0000 </r>
       <r>   -15.3524     0.0000     0.0000 </r>
       <r>   -15.3416     0.0000     0.0000 </r>
       <r>   -15.3307     0.0000     0.0000 </r>
       <r>   -15.3199     0.0000     0.0000 </r>
       <r>   -15.3090     0.0000     0.0000 </r>
       <r>   -15.2982     0.0000     0.0000 </r>
       <r>   -15.2873     0.0000     0.0000 </r>
       <r>   -15.2765     0.0000     0.0000 </r>
       <r>   -15.2656     0.0000     0.0000 </r>
       <r>   -15.2548     0.0000     0.0000 </r>
       <r>   -15.2439     0.0000     0.0000 </r>
       <r>   -15.2331     0.0000     0.0000 </r>
       <r>   -15.2222     0.0000     0.0000 </r>
       <r>   -15.2113     0.0000     0.0000 </r>
       <r>   -15.2005     0.0000     0.0000 </r>
       <r>   -15.1896     0.0000     0.0000 </r>
       <r>   -15.1788     0.0000     0.0000 </r>
       <r>   -15.1679     0.0000     0.0000 </r>
       <r>   -15.1571     0.0000     0.0000 </r>
       <r>   -15.1462     0.0000     0.0000 </r>
       <r>   -15.1354     0.0000     0.0000 </r>
       <r>   -15.1245     0.0000     0.0000 </r>
       <r>   -15.1137     0.0000     0.0000 </r>
       <r>   -15.1028     0.0000     0.0000 </r>
       <r>   -15.0920     0.0000     0.0000 </r>
       <r>   -15.0811     0.0000     0.0000 </r>
       <r>   -15.0703     0.0000     0.0000 </r>
       <r>   -15.0594     0.0000     0.0000 </r>
       <r>   -15.0486     0.0000     0.0000 </r>
       <r>   -15.0377     0.0000     0.0000 </r>
       <r>   -15.0268     0.0000     0.0000 </r>
       <r>   -15.0160     0.0000     0.0000 </r>
       <r>   -15.0051     0.0000     0.0000 </r>
       <r>   -14.9943     0.0000     0.0000 </r>
       <r>   -14.9834     0.0000     0.0000 </r>
       <r>   -14.9726     0.0000     0.0000 </r>
       <r>   -14.9617     0.0000     0.0000 </r>
       <r>   -14.9509     0.0000     0.0000 </r>
       <r>   -14.9400     0.0000     0.0000 </r>
       <r>   -14.9292     0.0000     0.0000 </r>
       <r>   -14.9183     0.0000     0.0000 </r>
       <r>   -14.9075     0.0000     0.0000 </r>
       <r>   -14.8966     0.0000     0.0000 </r>
       <r>   -14.8858     0.0000     0.0000 </r>
       <r>   -14.8749     0.0162     0.0002 </r>
       <r>   -14.8641     0.6940     0.0077 </r>
       <r>   -14.8532     3.7655     0.0486 </r>
       <r>   -14.8424     2.8913     0.0800 </r>
       <r>   -14.8315     0.3075     0.0833 </r>
       <r>   -14.8206     0.0040     0.0833 </r>
       <r>   -14.8098     0.0000     0.0833 </r>
       <r>   -14.7989     0.0000     0.0833 </r>
       <r>   -14.7881     0.0000     0.0833 </r>
       <r>   -14.7772     0.0000     0.0833 </r>
       <r>   -14.7664     0.0000     0.0833 </r>
       <r>   -14.7555     0.0107     0.0835 </r>
       <r>   -14.7447     0.5497     0.0894 </r>
       <r>   -14.7338     3.5266     0.1277 </r>
       <r>   -14.7230     3.1840     0.1622 </r>
       <r>   -14.7121     0.4012     0.1666 </r>
       <r>   -14.7013     0.0062     0.1667 </r>
       <r>   -14.6904     0.0018     0.1667 </r>
       <r>   -14.6796     0.1912     0.1688 </r>
       <r>   -14.6687     2.3886     0.1947 </r>
       <r>   -14.6579     4.0751     0.2389 </r>
       <r>   -14.6470     0.9906     0.2497 </r>
       <r>   -14.6361     0.0311     0.2500 </r>
       <r>   -14.6253     0.0001     0.2500 </r>
       <r>   -14.6144     0.0000     0.2500 </r>
       <r>   -14.6036     0.0000     0.2500 </r>
       <r>   -14.5927     0.0000     0.2500 </r>
       <r>   -14.5819     0.0000     0.2500 </r>
       <r>   -14.5710     0.0000     0.2500 </r>
       <r>   -14.5602     0.0003     0.2500 </r>
       <r>   -14.5493     0.0791     0.2509 </r>
       <r>   -14.5385     2.2500     0.2753 </r>
       <r>   -14.5276     8.3238     0.3656 </r>
       <r>   -14.5168     4.8132     0.4179 </r>
       <r>   -14.5059     5.2949     0.4753 </r>
       <r>   -14.4951     8.0482     0.5627 </r>
       <r>   -14.4842     1.8497     0.5827 </r>
       <r>   -14.4734     0.0547     0.5833 </r>
       <r>   -14.4625     0.0002     0.5833 </r>
       <r>   -14.4516     0.0000     0.5833 </r>
       <r>   -14.4408     0.0004     0.5833 </r>
       <r>   -14.4299     0.0878     0.5843 </r>
       <r>   -14.4191     2.3752     0.6101 </r>
       <r>   -14.4082     8.4615     0.7019 </r>
       <r>   -14.3974     6.5070     0.7725 </r>
       <r>   -14.3865     8.6249     0.8661 </r>
       <r>   -14.3757     4.3476     0.9133 </r>
       <r>   -14.3648     0.3401     0.9170 </r>
       <r>   -14.3540     1.4076     0.9323 </r>
       <r>   -14.3431     7.9273     1.0183 </r>
       <r>   -14.3323    10.5087     1.1324 </r>
       <r>   -14.3214     8.7705     1.2275 </r>
       <r>   -14.3106     2.0060     1.2493 </r>
       <r>   -14.2997     0.0632     1.2500 </r>
       <r>   -14.2889     0.0002     1.2500 </r>
       <r>   -14.2780     0.0000     1.2500 </r>
       <r>   -14.2672     0.0000     1.2500 </r>
       <r>   -14.2563     0.0000     1.2500 </r>
       <r>   -14.2454     0.0000     1.2500 </r>
       <r>   -14.2346     0.0000     1.2500 </r>
       <r>   -14.2237     0.0000     1.2500 </r>
       <r>   -14.2129     0.0009     1.2500 </r>
       <r>   -14.2020     0.1969     1.2521 </r>
       <r>   -14.1912     5.0383     1.3068 </r>
       <r>   -14.1803    16.8749     1.4900 </r>
       <r>   -14.1695     8.0773     1.5776 </r>
       <r>   -14.1586     0.5217     1.5833 </r>
       <r>   -14.1478     0.0040     1.5833 </r>
       <r>   -14.1369     0.0000     1.5833 </r>
       <r>   -14.1261     0.0000     1.5833 </r>
       <r>   -14.1152     0.0000     1.5833 </r>
       <r>   -14.1044     0.0001     1.5833 </r>
       <r>   -14.0935     0.0475     1.5839 </r>
       <r>   -14.0827     2.3305     1.6091 </r>
       <r>   -14.0718    14.3512     1.7649 </r>
       <r>   -14.0609    12.4560     1.9001 </r>
       <r>   -14.0501     1.5063     1.9164 </r>
       <r>   -14.0392     0.0255     1.9167 </r>
       <r>   -14.0284     0.4373     1.9214 </r>
       <r>   -14.0175     7.4474     2.0023 </r>
       <r>   -14.0067    17.0216     2.1870 </r>
       <r>   -13.9958     5.5641     2.2474 </r>
       <r>   -13.9850     0.2395     2.2500 </r>
       <r>   -13.9741     0.0012     2.2500 </r>
       <r>   -13.9633     0.0000     2.2500 </r>
       <r>   -13.9524     0.0000     2.2500 </r>
       <r>   -13.9416     0.0000     2.2500 </r>
       <r>   -13.9307     0.0000     2.2500 </r>
       <r>   -13.9199     0.0000     2.2500 </r>
       <r>   -13.9090     0.0000     2.2500 </r>
       <r>   -13.8982     0.0000     2.2500 </r>
       <r>   -13.8873     0.0000     2.2500 </r>
       <r>   -13.8765     0.0000     2.2500 </r>
       <r>   -13.8656     0.0000     2.2500 </r>
       <r>   -13.8547     0.0000     2.2500 </r>
       <r>   -13.8439     0.0000     2.2500 </r>
       <r>   -13.8330     0.0000     2.2500 </r>
       <r>   -13.8222     0.0000     2.2500 </r>
       <r>   -13.8113     0.0000     2.2500 </r>
       <r>   -13.8005     0.0000     2.2500 </r>
       <r>   -13.7896     0.0000     2.2500 </r>
       <r>   -13.7788     0.0000     2.2500 </r>
       <r>   -13.7679     0.0000     2.2500 </r>
       <r>   -13.7571     0.0000     2.2500 </r>
       <r>   -13.7462     0.0000     2.2500 </r>
       <r>   -13.7354     0.0000     2.2500 </r>
       <r>   -13.7245     0.0000     2.2500 </r>
       <r>   -13.7137     0.0000     2.2500 </r>
       <r>   -13.7028     0.0000     2.2500 </r>
       <r>   -13.6920     0.0000     2.2500 </r>
       <r>   -13.6811     0.0000     2.2500 </r>
       <r>   -13.6702     0.0000     2.2500 </r>
       <r>   -13.6594     0.0000     2.2500 </r>
       <r>   -13.6485     0.0000     2.2500 </r>
       <r>   -13.6377     0.0000     2.2500 </r>
       <r>   -13.6268     0.0000     2.2500 </r>
       <r>   -13.6160     0.0000     2.2500 </r>
       <r>   -13.6051     0.0010     2.2500 </r>
       <r>   -13.5943     0.1672     2.2518 </r>
       <r>   -13.5834     3.2788     2.2874 </r>
       <r>   -13.5726     8.5581     2.3803 </r>
       <r>   -13.5617     3.4690     2.4179 </r>
       <r>   -13.5509     4.2904     2.4645 </r>
       <r>   -13.5400     8.4107     2.5558 </r>
       <r>   -13.5292     2.4455     2.5823 </r>
       <r>   -13.5183     0.0929     2.5833 </r>
       <r>   -13.5075     0.0005     2.5833 </r>
       <r>   -13.4966     0.0445     2.5838 </r>
       <r>   -13.4858     1.6635     2.6019 </r>
       <r>   -13.4749     8.5767     2.6950 </r>
       <r>   -13.4640    11.4317     2.8190 </r>
       <r>   -13.4532     7.7648     2.9033 </r>
       <r>   -13.4423     2.0034     2.9250 </r>
       <r>   -13.4315     6.3429     2.9939 </r>
       <r>   -13.4206     7.1260     3.0712 </r>
       <r>   -13.4098     2.3982     3.0972 </r>
       <r>   -13.3989     7.3839     3.1774 </r>
       <r>   -13.3881     6.0029     3.2425 </r>
       <r>   -13.3772     0.6800     3.2499 </r>
       <r>   -13.3664     0.0094     3.2500 </r>
       <r>   -13.3555     0.0000     3.2500 </r>
       <r>   -13.3447     0.0000     3.2500 </r>
       <r>   -13.3338     0.0000     3.2500 </r>
       <r>   -13.3230     0.0000     3.2500 </r>
       <r>   -13.3121     0.0000     3.2500 </r>
       <r>   -13.3013     0.0000     3.2500 </r>
       <r>   -13.2904     0.0000     3.2500 </r>
       <r>   -13.2795     0.0033     3.2500 </r>
       <r>   -13.2687     0.4648     3.2551 </r>
       <r>   -13.2578     7.8987     3.3408 </r>
       <r>   -13.2470    22.6287     3.5864 </r>
       <r>   -13.2361    22.4266     3.8298 </r>
       <r>   -13.2253     7.5768     3.9120 </r>
       <r>   -13.2144     0.4264     3.9166 </r>
       <r>   -13.2036     0.0030     3.9167 </r>
       <r>   -13.1927     0.0367     3.9171 </r>
       <r>   -13.1819     2.0079     3.9389 </r>
       <r>   -13.1710    13.7232     4.0878 </r>
       <r>   -13.1602    13.8830     4.2385 </r>
       <r>   -13.1493    11.1243     4.3592 </r>
       <r>   -13.1385    17.5912     4.5501 </r>
       <r>   -13.1276    15.4173     4.7174 </r>
       <r>   -13.1168    15.3824     4.8844 </r>
       <r>   -13.1059     3.5196     4.9226 </r>
       <r>   -13.0951     8.7289     5.0173 </r>
       <r>   -13.0842    16.6857     5.1984 </r>
       <r>   -13.0733     4.5908     5.2482 </r>
       <r>   -13.0625     0.1644     5.2500 </r>
       <r>   -13.0516     0.0007     5.2500 </r>
       <r>   -13.0408     0.0000     5.2500 </r>
       <r>   -13.0299     0.0000     5.2500 </r>
       <r>   -13.0191     0.0000     5.2500 </r>
       <r>   -13.0082     0.0000     5.2500 </r>
       <r>   -12.9974     0.0000     5.2500 </r>
       <r>   -12.9865     0.0000     5.2500 </r>
       <r>   -12.9757     0.0000     5.2500 </r>
       <r>   -12.9648     0.0000     5.2500 </r>
       <r>   -12.9540     0.0000     5.2500 </r>
       <r>   -12.9431     0.0000     5.2500 </r>
       <r>   -12.9323     0.0000     5.2500 </r>
       <r>   -12.9214     0.0000     5.2500 </r>
       <r>   -12.9106     0.0000     5.2500 </r>
       <r>   -12.8997     0.0000     5.2500 </r>
       <r>   -12.8888     0.0000     5.2500 </r>
       <r>   -12.8780     0.0000     5.2500 </r>
       <r>   -12.8671     0.0000     5.2500 </r>
       <r>   -12.8563     0.0000     5.2500 </r>
       <r>   -12.8454     0.0000     5.2500 </r>
       <r>   -12.8346     0.0000     5.2500 </r>
       <r>   -12.8237     0.0000     5.2500 </r>
       <r>   -12.8129     0.0000     5.2500 </r>
       <r>   -12.8020     0.0000     5.2500 </r>
       <r>   -12.7912     0.0000     5.2500 </r>
       <r>   -12.7803     0.0000     5.2500 </r>
       <r>   -12.7695     0.0000     5.2500 </r>
       <r>   -12.7586     0.0000     5.2500 </r>
       <r>   -12.7478     0.0000     5.2500 </r>
       <r>   -12.7369     0.0000     5.2500 </r>
       <r>   -12.7261     0.0000     5.2500 </r>
       <r>   -12.7152     0.0000     5.2500 </r>
       <r>   -12.7043     0.0000     5.2500 </r>
       <r>   -12.6935     0.0000     5.2500 </r>
       <r>   -12.6826     0.0000     5.2500 </r>
       <r>   -12.6718     0.0000     5.2500 </r>
       <r>   -12.6609     0.0000     5.2500 </r>
       <r>   -12.6501     0.0000     5.2500 </r>
       <r>   -12.6392     0.0000     5.2500 </r>
       <r>   -12.6284     0.0000     5.2500 </r>
       <r>   -12.6175     0.0189     5.2502 </r>
       <r>   -12.6067     1.0208     5.2613 </r>
       <r>   -12.5958     6.8942     5.3361 </r>
       <r>   -12.5850     6.5408     5.4071 </r>
       <r>   -12.5741     0.8680     5.4165 </r>
       <r>   -12.5633     0.0143     5.4167 </r>
       <r>   -12.5524     0.0000     5.4167 </r>
       <r>   -12.5416     0.0000     5.4167 </r>
       <r>   -12.5307     0.0000     5.4167 </r>
       <r>   -12.5199     0.0000     5.4167 </r>
       <r>   -12.5090     0.0000     5.4167 </r>
       <r>   -12.4981     0.0000     5.4167 </r>
       <r>   -12.4873     0.0030     5.4167 </r>
       <r>   -12.4764     0.3386     5.4204 </r>
       <r>   -12.4656     4.5348     5.4696 </r>
       <r>   -12.4547     8.2612     5.5592 </r>
       <r>   -12.4439     2.1468     5.5825 </r>
       <r>   -12.4330     0.0724     5.5833 </r>
       <r>   -12.4222     0.0284     5.5836 </r>
       <r>   -12.4113     1.2819     5.5976 </r>
       <r>   -12.4005     7.5732     5.6797 </r>
       <r>   -12.3896    11.1843     5.8011 </r>
       <r>   -12.3788    19.2948     6.0105 </r>
       <r>   -12.3679    12.2832     6.1438 </r>
       <r>   -12.3571     2.0284     6.1658 </r>
       <r>   -12.3462     0.0754     6.1667 </r>
       <r>   -12.3354     0.0744     6.1675 </r>
       <r>   -12.3245     2.9883     6.1999 </r>
       <r>   -12.3136    15.3453     6.3664 </r>
       <r>   -12.3028    11.1924     6.4879 </r>
       <r>   -12.2919     2.8835     6.5192 </r>
       <r>   -12.2811    18.5296     6.7203 </r>
       <r>   -12.2702    31.5622     7.0628 </r>
       <r>   -12.2594     9.1577     7.1622 </r>
       <r>   -12.2485     0.4067     7.1666 </r>
       <r>   -12.2377     0.0023     7.1667 </r>
       <r>   -12.2268     0.0000     7.1667 </r>
       <r>   -12.2160     0.0000     7.1667 </r>
       <r>   -12.2051     0.0000     7.1667 </r>
       <r>   -12.1943     0.0000     7.1667 </r>
       <r>   -12.1834     0.0001     7.1667 </r>
       <r>   -12.1726     0.0308     7.1670 </r>
       <r>   -12.1617     1.8152     7.1867 </r>
       <r>   -12.1509    13.2816     7.3308 </r>
       <r>   -12.1400    13.9272     7.4820 </r>
       <r>   -12.1292     4.9116     7.5353 </r>
       <r>   -12.1183     3.7610     7.5761 </r>
       <r>   -12.1074     1.5882     7.5934 </r>
       <r>   -12.0966    10.3688     7.7059 </r>
       <r>   -12.0857    15.9456     7.8789 </r>
       <r>   -12.0749     5.6773     7.9406 </r>
       <r>   -12.0640     8.4010     8.0317 </r>
       <r>   -12.0532     4.6021     8.0817 </r>
       <r>   -12.0423     3.6251     8.1210 </r>
       <r>   -12.0315     8.5582     8.2139 </r>
       <r>   -12.0206     3.1701     8.2483 </r>
       <r>   -12.0098     0.1560     8.2500 </r>
       <r>   -11.9989     0.0009     8.2500 </r>
       <r>   -11.9881     0.0024     8.2500 </r>
       <r>   -11.9772     0.2910     8.2532 </r>
       <r>   -11.9664     4.2786     8.2996 </r>
       <r>   -11.9555     9.4634     8.4023 </r>
       <r>   -11.9447     6.5013     8.4729 </r>
       <r>   -11.9338     2.3380     8.4983 </r>
       <r>   -11.9229     0.7043     8.5059 </r>
       <r>   -11.9121     5.4955     8.5655 </r>
       <r>   -11.9012     7.7343     8.6495 </r>
       <r>   -11.8904     1.5444     8.6662 </r>
       <r>   -11.8795     0.0453     8.6667 </r>
       <r>   -11.8687     0.6749     8.6741 </r>
       <r>   -11.8578     9.0551     8.7723 </r>
       <r>   -11.8470    16.5285     8.9517 </r>
       <r>   -11.8361     4.3038     8.9984 </r>
       <r>   -11.8253     0.1454     9.0000 </r>
       <r>   -11.8144     0.0159     9.0002 </r>
       <r>   -11.8036     0.9060     9.0100 </r>
       <r>   -11.7927     6.6350     9.0820 </r>
       <r>   -11.7819     6.9015     9.1569 </r>
       <r>   -11.7710     4.4518     9.2052 </r>
       <r>   -11.7602    15.9011     9.3778 </r>
       <r>   -11.7493    10.3345     9.4900 </r>
       <r>   -11.7385     1.6216     9.5076 </r>
       <r>   -11.7276     9.2064     9.6075 </r>
       <r>   -11.7167    16.4673     9.7862 </r>
       <r>   -11.7059     4.2050     9.8318 </r>
       <r>   -11.6950     0.1391     9.8333 </r>
       <r>   -11.6842     0.0005     9.8333 </r>
       <r>   -11.6733     0.0000     9.8333 </r>
       <r>   -11.6625     0.0000     9.8333 </r>
       <r>   -11.6516     0.0000     9.8333 </r>
       <r>   -11.6408     0.0011     9.8333 </r>
       <r>   -11.6299     0.1762     9.8353 </r>
       <r>   -11.6191     3.3623     9.8717 </r>
       <r>   -11.6082     8.5532     9.9646 </r>
       <r>   -11.5974     3.1133     9.9984 </r>
       <r>   -11.5865     0.1842    10.0004 </r>
       <r>   -11.5757     1.4242    10.0158 </r>
       <r>   -11.5648     7.5800    10.0981 </r>
       <r>   -11.5540     5.7156    10.1601 </r>
       <r>   -11.5431     0.5965    10.1666 </r>
       <r>   -11.5322     0.0394    10.1670 </r>
       <r>   -11.5214     1.8486    10.1871 </r>
       <r>   -11.5105    13.3555    10.3320 </r>
       <r>   -11.4997    13.5230    10.4788 </r>
       <r>   -11.4888     1.9210    10.4996 </r>
       <r>   -11.4780     0.0340    10.5000 </r>
       <r>   -11.4671     0.0003    10.5000 </r>
       <r>   -11.4563     0.0908    10.5010 </r>
       <r>   -11.4454     3.3442    10.5373 </r>
       <r>   -11.4346    15.7542    10.7083 </r>
       <r>   -11.4237    10.5433    10.8227 </r>
       <r>   -11.4129     0.9705    10.8332 </r>
       <r>   -11.4020     0.0108    10.8333 </r>
       <r>   -11.3912     0.0000    10.8333 </r>
       <r>   -11.3803     0.0000    10.8333 </r>
       <r>   -11.3695     0.0000    10.8333 </r>
       <r>   -11.3586     0.0095    10.8334 </r>
       <r>   -11.3477     0.8973    10.8432 </r>
       <r>   -11.3369    10.2131    10.9540 </r>
       <r>   -11.3260    15.9580    11.1272 </r>
       <r>   -11.3152     4.3364    11.1743 </r>
       <r>   -11.3043     9.8079    11.2807 </r>
       <r>   -11.2935    16.2246    11.4568 </r>
       <r>   -11.2826     3.8622    11.4987 </r>
       <r>   -11.2718     0.1185    11.5000 </r>
       <r>   -11.2609     0.0004    11.5000 </r>
       <r>   -11.2501     0.0000    11.5000 </r>
       <r>   -11.2392     0.0000    11.5000 </r>
       <r>   -11.2284     0.0000    11.5000 </r>
       <r>   -11.2175     0.0000    11.5000 </r>
       <r>   -11.2067     0.0000    11.5000 </r>
       <r>   -11.1958     0.0000    11.5000 </r>
       <r>   -11.1850     0.0000    11.5000 </r>
       <r>   -11.1741     0.0000    11.5000 </r>
       <r>   -11.1633     0.0000    11.5000 </r>
       <r>   -11.1524     0.0000    11.5000 </r>
       <r>   -11.1415     0.0000    11.5000 </r>
       <r>   -11.1307     0.0000    11.5000 </r>
       <r>   -11.1198     0.0000    11.5000 </r>
       <r>   -11.1090     0.0000    11.5000 </r>
       <r>   -11.0981     0.0000    11.5000 </r>
       <r>   -11.0873     0.0000    11.5000 </r>
       <r>   -11.0764     0.0000    11.5000 </r>
       <r>   -11.0656     0.0002    11.5000 </r>
       <r>   -11.0547     0.0483    11.5005 </r>
       <r>   -11.0439     1.7292    11.5193 </r>
       <r>   -11.0330     7.9348    11.6054 </r>
       <r>   -11.0222     5.1758    11.6616 </r>
       <r>   -11.0113     0.4637    11.6666 </r>
       <r>   -11.0005     0.0050    11.6667 </r>
       <r>   -10.9896     0.0000    11.6667 </r>
       <r>   -10.9788     0.0000    11.6667 </r>
       <r>   -10.9679     0.0000    11.6667 </r>
       <r>   -10.9570     0.0000    11.6667 </r>
       <r>   -10.9462     0.0000    11.6667 </r>
       <r>   -10.9353     0.0000    11.6667 </r>
       <r>   -10.9245     0.0000    11.6667 </r>
       <r>   -10.9136     0.0000    11.6667 </r>
       <r>   -10.9028     0.0000    11.6667 </r>
       <r>   -10.8919     0.0000    11.6667 </r>
       <r>   -10.8811     0.0000    11.6667 </r>
       <r>   -10.8702     0.0000    11.6667 </r>
       <r>   -10.8594     0.0000    11.6667 </r>
       <r>   -10.8485     0.0000    11.6667 </r>
       <r>   -10.8377     0.0000    11.6667 </r>
       <r>   -10.8268     0.0001    11.6667 </r>
       <r>   -10.8160     0.0319    11.6670 </r>
       <r>   -10.8051     1.3753    11.6819 </r>
       <r>   -10.7943     7.5128    11.7635 </r>
       <r>   -10.7834     5.8069    11.8265 </r>
       <r>   -10.7726     0.6219    11.8332 </r>
       <r>   -10.7617     0.0081    11.8333 </r>
       <r>   -10.7508     0.0000    11.8333 </r>
       <r>   -10.7400     0.0000    11.8333 </r>
       <r>   -10.7291     0.0000    11.8333 </r>
       <r>   -10.7183     0.0000    11.8333 </r>
       <r>   -10.7074     0.0000    11.8333 </r>
       <r>   -10.6966     0.0000    11.8333 </r>
       <r>   -10.6857     0.0000    11.8333 </r>
       <r>   -10.6749     0.0000    11.8333 </r>
       <r>   -10.6640     0.0000    11.8333 </r>
       <r>   -10.6532     0.0000    11.8333 </r>
       <r>   -10.6423     0.0173    11.8335 </r>
       <r>   -10.6315     0.9693    11.8440 </r>
       <r>   -10.6206     6.7821    11.9176 </r>
       <r>   -10.6098     6.6573    11.9899 </r>
       <r>   -10.5989     0.9154    11.9998 </r>
       <r>   -10.5881     0.0156    12.0000 </r>
       <r>   -10.5772     0.0000    12.0000 </r>
       <r>   -10.5663     0.0000    12.0000 </r>
       <r>   -10.5555     0.0000    12.0000 </r>
       <r>   -10.5446     0.0000    12.0000 </r>
       <r>   -10.5338     0.0000    12.0000 </r>
       <r>   -10.5229     0.0000    12.0000 </r>
       <r>   -10.5121     0.0000    12.0000 </r>
       <r>   -10.5012     0.0000    12.0000 </r>
       <r>   -10.4904     0.0000    12.0000 </r>
       <r>   -10.4795     0.0000    12.0000 </r>
       <r>   -10.4687     0.0000    12.0000 </r>
       <r>   -10.4578     0.0000    12.0000 </r>
       <r>   -10.4470     0.0000    12.0000 </r>
       <r>   -10.4361     0.0000    12.0000 </r>
       <r>   -10.4253     0.0000    12.0000 </r>
       <r>   -10.4144     0.0000    12.0000 </r>
       <r>   -10.4036     0.0000    12.0000 </r>
       <r>   -10.3927     0.0000    12.0000 </r>
       <r>   -10.3819     0.0000    12.0000 </r>
       <r>   -10.3710     0.0000    12.0000 </r>
       <r>   -10.3601     0.0000    12.0000 </r>
       <r>   -10.3493     0.0000    12.0000 </r>
       <r>   -10.3384     0.0000    12.0000 </r>
       <r>   -10.3276     0.0000    12.0000 </r>
       <r>   -10.3167     0.0000    12.0000 </r>
       <r>   -10.3059     0.0000    12.0000 </r>
       <r>   -10.2950     0.0000    12.0000 </r>
       <r>   -10.2842     0.0000    12.0000 </r>
       <r>   -10.2733     0.0001    12.0000 </r>
       <r>   -10.2625     0.0261    12.0003 </r>
       <r>   -10.2516     1.2300    12.0136 </r>
       <r>   -10.2408     7.2879    12.0927 </r>
       <r>   -10.2299     6.0940    12.1589 </r>
       <r>   -10.2191     0.7088    12.1666 </r>
       <r>   -10.2082     0.0101    12.1667 </r>
       <r>   -10.1974     0.0000    12.1667 </r>
       <r>   -10.1865     0.0053    12.1667 </r>
       <r>   -10.1756     0.4816    12.1720 </r>
       <r>   -10.1648     5.2564    12.2290 </r>
       <r>   -10.1539     8.0418    12.3163 </r>
       <r>   -10.1431     4.8403    12.3688 </r>
       <r>   -10.1322     8.6010    12.4621 </r>
       <r>   -10.1214     3.3156    12.4981 </r>
       <r>   -10.1105     0.1711    12.5000 </r>
       <r>   -10.0997     0.0010    12.5000 </r>
       <r>   -10.0888     0.0000    12.5000 </r>
       <r>   -10.0780     0.0000    12.5000 </r>
       <r>   -10.0671     0.0000    12.5000 </r>
       <r>   -10.0563     0.0000    12.5000 </r>
       <r>   -10.0454     0.0000    12.5000 </r>
       <r>   -10.0346     0.0000    12.5000 </r>
       <r>   -10.0237     0.0000    12.5000 </r>
       <r>   -10.0129     0.0000    12.5000 </r>
       <r>   -10.0020     0.0000    12.5000 </r>
       <r>    -9.9911     0.0000    12.5000 </r>
       <r>    -9.9803     0.0000    12.5000 </r>
       <r>    -9.9694     0.0000    12.5000 </r>
       <r>    -9.9586     0.0000    12.5000 </r>
       <r>    -9.9477     0.0000    12.5000 </r>
       <r>    -9.9369     0.0000    12.5000 </r>
       <r>    -9.9260     0.0000    12.5000 </r>
       <r>    -9.9152     0.0000    12.5000 </r>
       <r>    -9.9043     0.0000    12.5000 </r>
       <r>    -9.8935     0.0000    12.5000 </r>
       <r>    -9.8826     0.0000    12.5000 </r>
       <r>    -9.8718     0.0000    12.5000 </r>
       <r>    -9.8609     0.0000    12.5000 </r>
       <r>    -9.8501     0.0000    12.5000 </r>
       <r>    -9.8392     0.0000    12.5000 </r>
       <r>    -9.8284     0.0000    12.5000 </r>
       <r>    -9.8175     0.0000    12.5000 </r>
       <r>    -9.8067     0.0000    12.5000 </r>
       <r>    -9.7958     0.0000    12.5000 </r>
       <r>    -9.7849     0.0000    12.5000 </r>
       <r>    -9.7741     0.0109    12.5001 </r>
       <r>    -9.7632     0.9779    12.5107 </r>
       <r>    -9.7524    10.5753    12.6255 </r>
       <r>    -9.7415    15.7344    12.7963 </r>
       <r>    -9.7307     3.3253    12.8324 </r>
       <r>    -9.7198     0.0899    12.8333 </r>
       <r>    -9.7090     0.0003    12.8333 </r>
       <r>    -9.6981     0.0000    12.8333 </r>
       <r>    -9.6873     0.0000    12.8333 </r>
       <r>    -9.6764     0.0000    12.8333 </r>
       <r>    -9.6656     0.0000    12.8333 </r>
       <r>    -9.6547     0.0000    12.8333 </r>
       <r>    -9.6439     0.0000    12.8333 </r>
       <r>    -9.6330     0.0000    12.8333 </r>
       <r>    -9.6222     0.0001    12.8333 </r>
       <r>    -9.6113     0.0404    12.8338 </r>
       <r>    -9.6004     2.1231    12.8568 </r>
       <r>    -9.5896    13.9564    13.0083 </r>
       <r>    -9.5787    12.9011    13.1483 </r>
       <r>    -9.5679     1.6663    13.1664 </r>
       <r>    -9.5570     0.0275    13.1667 </r>
       <r>    -9.5462     0.1520    13.1683 </r>
       <r>    -9.5353     3.1302    13.2023 </r>
       <r>    -9.5245     8.5540    13.2951 </r>
       <r>    -9.5136     3.3448    13.3314 </r>
       <r>    -9.5028     0.1991    13.3336 </r>
       <r>    -9.4919     1.6038    13.3510 </r>
       <r>    -9.4811    13.1868    13.4941 </r>
       <r>    -9.4702    21.7310    13.7300 </r>
       <r>    -9.4594    19.1429    13.9377 </r>
       <r>    -9.4485     5.7028    13.9996 </r>
       <r>    -9.4377     5.2943    14.0571 </r>
       <r>    -9.4268    16.8846    14.2403 </r>
       <r>    -9.4160     8.2396    14.3297 </r>
       <r>    -9.4051     3.9878    14.3730 </r>
       <r>    -9.3942     8.5495    14.4658 </r>
       <r>    -9.3834     3.0112    14.4985 </r>
       <r>    -9.3725     0.1404    14.5000 </r>
       <r>    -9.3617     0.0008    14.5000 </r>
       <r>    -9.3508     0.0000    14.5000 </r>
       <r>    -9.3400     0.0000    14.5000 </r>
       <r>    -9.3291     0.0000    14.5000 </r>
       <r>    -9.3183     0.0000    14.5000 </r>
       <r>    -9.3074     0.0000    14.5000 </r>
       <r>    -9.2966     0.0140    14.5002 </r>
       <r>    -9.2857     1.1363    14.5125 </r>
       <r>    -9.2749    11.2198    14.6343 </r>
       <r>    -9.2640    15.3102    14.8004 </r>
       <r>    -9.2532     2.9607    14.8325 </r>
       <r>    -9.2423     0.0728    14.8333 </r>
       <r>    -9.2315     0.0002    14.8333 </r>
       <r>    -9.2206     0.0000    14.8333 </r>
       <r>    -9.2097     0.0012    14.8333 </r>
       <r>    -9.1989     0.2443    14.8360 </r>
       <r>    -9.1880     5.7509    14.8984 </r>
       <r>    -9.1772    20.0389    15.1159 </r>
       <r>    -9.1663    15.9392    15.2889 </r>
       <r>    -9.1555     3.9038    15.3312 </r>
       <r>    -9.1446     0.1915    15.3333 </r>
       <r>    -9.1338     0.0012    15.3333 </r>
       <r>    -9.1229     0.0000    15.3333 </r>
       <r>    -9.1121     0.0000    15.3333 </r>
       <r>    -9.1012     0.0000    15.3333 </r>
       <r>    -9.0904     0.0000    15.3333 </r>
       <r>    -9.0795     0.0000    15.3333 </r>
       <r>    -9.0687     0.0006    15.3333 </r>
       <r>    -9.0578     0.1556    15.3350 </r>
       <r>    -9.0470     4.4604    15.3834 </r>
       <r>    -9.0361    16.6181    15.5638 </r>
       <r>    -9.0253     8.9187    15.6606 </r>
       <r>    -9.0144     3.8035    15.7019 </r>
       <r>    -9.0035    15.5469    15.8706 </r>
       <r>    -8.9927    10.8619    15.9885 </r>
       <r>    -8.9818     1.0500    15.9999 </r>
       <r>    -8.9710     0.0124    16.0000 </r>
       <r>    -8.9601     0.0000    16.0000 </r>
       <r>    -8.9493     0.0000    16.0000 </r>
       <r>    -8.9384     0.0000    16.0000 </r>
       <r>    -8.9276     0.0005    16.0000 </r>
       <r>    -8.9167     0.1059    16.0012 </r>
       <r>    -8.9059     2.7402    16.0309 </r>
       <r>    -8.8950    12.5502    16.1671 </r>
       <r>    -8.8842    20.3152    16.3876 </r>
       <r>    -8.8733     9.6239    16.4920 </r>
       <r>    -8.8625     1.1826    16.5049 </r>
       <r>    -8.8516     5.5751    16.5654 </r>
       <r>    -8.8408    14.6763    16.7246 </r>
       <r>    -8.8299    17.6507    16.9162 </r>
       <r>    -8.8190     7.1698    16.9940 </r>
       <r>    -8.8082     0.5460    16.9999 </r>
       <r>    -8.7973     0.0214    17.0002 </r>
       <r>    -8.7865     1.2174    17.0134 </r>
       <r>    -8.7756    11.5198    17.1384 </r>
       <r>    -8.7648    15.0953    17.3022 </r>
       <r>    -8.7539     2.8007    17.3326 </r>
       <r>    -8.7431     0.2171    17.3350 </r>
       <r>    -8.7322     3.1236    17.3689 </r>
       <r>    -8.7214     8.5537    17.4617 </r>
       <r>    -8.7105     3.3517    17.4981 </r>
       <r>    -8.6997     0.1750    17.5000 </r>
       <r>    -8.6888     0.0066    17.5001 </r>
       <r>    -8.6780     0.6424    17.5070 </r>
       <r>    -8.6671     8.8632    17.6032 </r>
[...]
        <r>  0.0000  0.0076  0.0135  0.0204  0.0000  0.0000  0.0000  0.0000  0.0000 </r>
        <r>  0.0000  0.0133  0.0238  0.0116  0.0000  0.0000  0.0000  0.0000  0.0000 </r>
        <r>  0.0000  0.0076  0.0135  0.0204  0.0000  0.0000  0.0000  0.0000  0.0000 </r>
        <r>  0.0000  0.0133  0.0238  0.0116  0.0000  0.0000  0.0000  0.0000  0.0000 </r>
        <r>  0.0188  0.0026  0.0085  0.0028  0.0000  0.0000  0.0000  0.0000  0.0000 </r>
        <r>  0.0107  0.0015  0.0048  0.0049  0.0000  0.0000  0.0000  0.0000  0.0000 </r>
        <r>  0.0198  0.0044  0.0142  0.0054  0.0000  0.0000  0.0000  0.0000  0.0000 </r>
        <r>  0.0113  0.0025  0.0081  0.0094  0.0000  0.0000  0.0000  0.0000  0.0000 </r>
       </set>
       <set comment="band 25">
        <r>  0.0000  0.0002  0.0001  0.0007  0.0000  0.0000  0.0000  0.0000  0.0000 </r>
        <r>  0.0002  0.0025  0.0011  0.0001  0.0000  0.0000  0.0000  0.0000  0.0000 </r>
        <r>  0.0000  0.0000  0.0002  0.0014  0.0000  0.0000  0.0000  0.0000  0.0000 </r>
        <r>  0.0005  0.0001  0.0022  0.0001  0.0000  0.0000  0.0000  0.0000  0.0000 </r>
        <r>  0.0183  0.1407  0.0203  0.0015  0.0000  0.0000  0.0000  0.0000  0.0000 </r>
        <r>  0.0016  0.0124  0.0018  0.0176  0.0000  0.0000  0.0000  0.0000  0.0000 </r>
        <r>  0.0183  0.1407  0.0203  0.0015  0.0000  0.0000  0.0000  0.0000  0.0000 </r>
        <r>  0.0016  0.0124  0.0018  0.0176  0.0000  0.0000  0.0000  0.0000  0.0000 </r>
        <r>  0.0000  0.0000  0.0002  0.0014  0.0000  0.0000  0.0000  0.0000  0.0000 </r>
        <r>  0.0005  0.0001  0.0022  0.0001  0.0000  0.0000  0.0000  0.0000  0.0000 </r>
        <r>  0.0000  0.0002  0.0001  0.0007  0.0000  0.0000  0.0000  0.0000  0.0000 </r>
        <r>  0.0002  0.0025  0.0011  0.0001  0.0000  0.0000  0.0000  0.0000  0.0000 </r>
       </set>
       <set comment="band 26">
        <r>  0.0002  0.0025  0.0011  0.0001  0.0000  0.0000  0.0000  0.0000  0.0000 </r>
        <r>  0.0000  0.0002  0.0001  0.0007  0.0000  0.0000  0.0000  0.0000  0.0000 </r>
        <r>  0.0005  0.0001  0.0022  0.0001  0.0000  0.0000  0.0000  0.0000  0.0000 </r>
        <r>  0.0000  0.0000  0.0002  0.0014  0.0000  0.0000  0.0000  0.0000  0.0000 </r>
        <r>  0.0016  0.0124  0.0018  0.0176  0.0000  0.0000  0.0000  0.0000  0.0000 </r>
        <r>  0.0183  0.1407  0.0203  0.0015  0.0000  0.0000  0.0000  0.0000  0.0000 </r>
        <r>  0.0016  0.0124  0.0018  0.0176  0.0000  0.0000  0.0000  0.0000  0.0000 </r>
        <r>  0.0183  0.1407  0.0203  0.0015  0.0000  0.0000  0.0000  0.0000  0.0000 </r>
        <r>  0.0005  0.0001  0.0022  0.0001  0.0000  0.0000  0.0000  0.0000  0.0000 </r>
        <r>  0.0000  0.0000  0.0002  0.0014  0.0000  0.0000  0.0000  0.0000  0.0000 </r>
        <r>  0.0002  0.0025  0.0011  0.0001  0.0000  0.0000  0.0000  0.0000  0.0000 </r>
        <r>  0.0000  0.0002  0.0001  0.0007  0.0000  0.0000  0.0000  0.0000  0.0000 </r>
       </set>
       <set comment="band 27">
        <r>  0.0068  0.0424  0.0068  0.0049  0.0000  0.0000  0.0000  0.0000  0.0000 </r>
        <r>  0.0057  0.0356  0.0057  0.0058  0.0000  0.0000  0.0000  0.0000  0.0000 </r>
        <r>  0.0044  0.0423  0.0055  0.0041  0.0000  0.0000  0.0000  0.0000  0.0000 </r>
        <r>  0.0037  0.0355  0.0046  0.0049  0.0000  0.0000  0.0000  0.0000  0.0000 </r>
        <r>  0.0003  0.0009  0.0000  0.0000  0.0000  0.0000  0.0000  0.0000  0.0000 </r>
        <r>  0.0004  0.0011  0.0000  0.0000  0.0000  0.0000  0.0000  0.0000  0.0000 </r>
        <r>  0.0003  0.0009  0.0000  0.0000  0.0000  0.0000  0.0000  0.0000  0.0000 </r>
        <r>  0.0004  0.0011  0.0000  0.0000  0.0000  0.0000  0.0000  0.0000  0.0000 </r>
        <r>  0.0044  0.0423  0.0055  0.0041  0.0000  0.0000  0.0000  0.0000  0.0000 </r>
        <r>  0.0037  0.0355  0.0046  0.0049  0.0000  0.0000  0.0000  0.0000  0.0000 </r>
        <r>  0.0068  0.0424  0.0068  0.0049  0.0000  0.0000  0.0000  0.0000  0.0000 </r>
        <r>  0.0057  0.0356  0.0057  0.0058  0.0000  0.0000  0.0000  0.0000  0.0000 </r>
       </set>
       <set comment="band 28">
        <r>  0.0057  0.0356  0.0057  0.0058  0.0000  0.0000  0.0000  0.0000  0.0000 </r>
        <r>  0.0068  0.0424  0.0068  0.0049  0.0000  0.0000  0.0000  0.0000  0.0000 </r>
        <r>  0.0037  0.0355  0.0046  0.0049  0.0000  0.0000  0.0000  0.0000  0.0000 </r>
        <r>  0.0044  0.0423  0.0055  0.0041  0.0000  0.0000  0.0000  0.0000  0.0000 </r>
        <r>  0.0004  0.0011  0.0000  0.0000  0.0000  0.0000  0.0000  0.0000  0.0000 </r>
        <r>  0.0003  0.0009  0.0000  0.0000  0.0000  0.0000  0.0000  0.0000  0.0000 </r>
        <r>  0.0004  0.0011  0.0000  0.0000  0.0000  0.0000  0.0000  0.0000  0.0000 </r>
        <r>  0.0003  0.0009  0.0000  0.0000  0.0000  0.0000  0.0000  0.0000  0.0000 </r>
        <r>  0.0037  0.0355  0.0046  0.0049  0.0000  0.0000  0.0000  0.0000  0.0000 </r>
        <r>  0.0044  0.0423  0.0055  0.0041  0.0000  0.0000  0.0000  0.0000  0.0000 </r>
        <r>  0.0057  0.0356  0.0057  0.0058  0.0000  0.0000  0.0000  0.0000  0.0000 </r>
        <r>  0.0068  0.0424  0.0068  0.0049  0.0000  0.0000  0.0000  0.0000  0.0000 </r>
       </set>
       <set comment="band 29">
        <r>  0.0103  0.0718  0.0110  0.0011  0.0000  0.0000  0.0000  0.0000  0.0000 </r>
        <r>  0.0011  0.0080  0.0012  0.0095  0.0000  0.0000  0.0000  0.0000  0.0000 </r>
        <r>  0.0094  0.0719  0.0105  0.0010  0.0000  0.0000  0.0000  0.0000  0.0000 </r>
        <r>  0.0010  0.0080  0.0012  0.0091  0.0000  0.0000  0.0000  0.0000  0.0000 </r>
        <r>  0.0000  0.0001  0.0003  0.0019  0.0000  0.0000  0.0000  0.0000  0.0000 </r>
        <r>  0.0000  0.0007  0.0031  0.0002  0.0000  0.0000  0.0000  0.0000  0.0000 </r>
        <r>  0.0000  0.0001  0.0003  0.0019  0.0000  0.0000  0.0000  0.0000  0.0000 </r>
        <r>  0.0000  0.0007  0.0031  0.0002  0.0000  0.0000  0.0000  0.0000  0.0000 </r>
        <r>  0.0094  0.0719  0.0105  0.0010  0.0000  0.0000  0.0000  0.0000  0.0000 </r>
        <r>  0.0010  0.0080  0.0012  0.0091  0.0000  0.0000  0.0000  0.0000  0.0000 </r>
        <r>  0.0103  0.0718  0.0110  0.0011  0.0000  0.0000  0.0000  0.0000  0.0000 </r>
        <r>  0.0011  0.0080  0.0012  0.0095  0.0000  0.0000  0.0000  0.0000  0.0000 </r>
       </set>
       <set comment="band 30">
        <r>  0.0011  0.0080  0.0012  0.0095  0.0000  0.0000  0.0000  0.0000  0.0000 </r>
        <r>  0.0103  0.0718  0.0110  0.0011  0.0000  0.0000  0.0000  0.0000  0.0000 </r>
        <r>  0.0010  0.0080  0.0012  0.0091  0.0000  0.0000  0.0000  0.0000  0.0000 </r>
        <r>  0.0094  0.0719  0.0105  0.0010  0.0000  0.0000  0.0000  0.0000  0.0000 </r>
        <r>  0.0000  0.0007  0.0031  0.0002  0.0000  0.0000  0.0000  0.0000  0.0000 </r>
        <r>  0.0000  0.0001  0.0003  0.0019  0.0000  0.0000  0.0000  0.0000  0.0000 </r>
        <r>  0.0000  0.0007  0.0031  0.0002  0.0000  0.0000  0.0000  0.0000  0.0000 </r>
        <r>  0.0000  0.0001  0.0003  0.0019  0.0000  0.0000  0.0000  0.0000  0.0000 </r>
        <r>  0.0010  0.0080  0.0012  0.0091  0.0000  0.0000  0.0000  0.0000  0.0000 </r>
        <r>  0.0094  0.0719  0.0105  0.0010  0.0000  0.0000  0.0000  0.0000  0.0000 </r>
        <r>  0.0011  0.0080  0.0012  0.0095  0.0000  0.0000  0.0000  0.0000  0.0000 </r>
        <r>  0.0103  0.0718  0.0110  0.0011  0.0000  0.0000  0.0000  0.0000  0.0000 </r>
       </set>
       <set comment="band 31">
        <r>  0.0083  0.0344  0.0025  0.0008  0.0000  0.0000  0.0000  0.0000  0.0000 </r>
        <r>  0.0030  0.0123  0.0009  0.0023  0.0000  0.0000  0.0000  0.0000  0.0000 </r>
        <r>  0.0077  0.0354  0.0011  0.0006  0.0000  0.0000  0.0000  0.0000  0.0000 </r>
        <r>  0.0028  0.0127  0.0004  0.0017  0.0000  0.0000  0.0000  0.0000  0.0000 </r>
        <r>  0.0017  0.0015  0.0002  0.0003  0.0000  0.0000  0.0000  0.0000  0.0000 </r>
        <r>  0.0048  0.0042  0.0006  0.0001  0.0000  0.0000  0.0000  0.0000  0.0000 </r>
        <r>  0.0017  0.0015  0.0002  0.0003  0.0000  0.0000  0.0000  0.0000  0.0000 </r>
        <r>  0.0048  0.0042  0.0006  0.0001  0.0000  0.0000  0.0000  0.0000  0.0000 </r>
        <r>  0.0077  0.0354  0.0011  0.0006  0.0000  0.0000  0.0000  0.0000  0.0000 </r>
        <r>  0.0028  0.0127  0.0004  0.0017  0.0000  0.0000  0.0000  0.0000  0.0000 </r>
        <r>  0.0083  0.0344  0.0025  0.0008  0.0000  0.0000  0.0000  0.0000  0.0000 </r>
        <r>  0.0030  0.0123  0.0009  0.0023  0.0000  0.0000  0.0000  0.0000  0.0000 </r>
       </set>
       <set comment="band 32">
        <r>  0.0030  0.0123  0.0009  0.0023  0.0000  0.0000  0.0000  0.0000  0.0000 </r>
        <r>  0.0083  0.0344  0.0025  0.0008  0.0000  0.0000  0.0000  0.0000  0.0000 </r>
        <r>  0.0028  0.0127  0.0004  0.0017  0.0000  0.0000  0.0000  0.0000  0.0000 </r>
        <r>  0.0077  0.0354  0.0011  0.0006  0.0000  0.0000  0.0000  0.0000  0.0000 </r>
        <r>  0.0048  0.0042  0.0006  0.0001  0.0000  0.0000  0.0000  0.0000  0.0000 </r>
        <r>  0.0017  0.0015  0.0002  0.0003  0.0000  0.0000  0.0000  0.0000  0.0000 </r>
        <r>  0.0048  0.0042  0.0006  0.0001  0.0000  0.0000  0.0000  0.0000  0.0000 </r>
        <r>  0.0017  0.0015  0.0002  0.0003  0.0000  0.0000  0.0000  0.0000  0.0000 </r>
        <r>  0.0028  0.0127  0.0004  0.0017  0.0000  0.0000  0.0000  0.0000  0.0000 </r>
        <r>  0.0077  0.0354  0.0011  0.0006  0.0000  0.0000  0.0000  0.0000  0.0000 </r>
        <r>  0.0030  0.0123  0.0009  0.0023  0.0000  0.0000  0.0000  0.0000  0.0000 </r>
        <r>  0.0083  0.0344  0.0025  0.0008  0.0000  0.0000  0.0000  0.0000  0.0000 </r>
       </set>
       <set comment="band 33">
        <r>  0.0003  0.0102  0.0003  0.0001  0.0000  0.0000  0.0000  0.0000  0.0000 </r>
        <r>  0.0001  0.0039  0.0001  0.0002  0.0000  0.0000  0.0000  0.0000  0.0000 </r>
        <r>  0.0064  0.0000  0.0028  0.0005  0.0000  0.0000  0.0000  0.0000  0.0000 </r>
        <r>  0.0025  0.0000  0.0011  0.0013  0.0000  0.0000  0.0000  0.0000  0.0000 </r>
        <r>  0.0062  0.0270  0.0014  0.0043  0.0000  0.0000  0.0000  0.0000  0.0000 </r>
        <r>  0.0159  0.0699  0.0037  0.0016  0.0000  0.0000  0.0000  0.0000  0.0000 </r>
        <r>  0.0062  0.0270  0.0014  0.0043  0.0000  0.0000  0.0000  0.0000  0.0000 </r>
        <r>  0.0159  0.0699  0.0037  0.0016  0.0000  0.0000  0.0000  0.0000  0.0000 </r>
        <r>  0.0064  0.0000  0.0028  0.0005  0.0000  0.0000  0.0000  0.0000  0.0000 </r>
        <r>  0.0025  0.0000  0.0011  0.0013  0.0000  0.0000  0.0000  0.0000  0.0000 </r>
        <r>  0.0003  0.0102  0.0003  0.0001  0.0000  0.0000  0.0000  0.0000  0.0000 </r>
        <r>  0.0001  0.0039  0.0001  0.0002  0.0000  0.0000  0.0000  0.0000  0.0000 </r>
       </set>
       <set comment="band 34">
        <r>  0.0001  0.0039  0.0001  0.0002  0.0000  0.0000  0.0000  0.0000  0.0000 </r>
        <r>  0.0003  0.0102  0.0003  0.0001  0.0000  0.0000  0.0000  0.0000  0.0000 </r>
        <r>  0.0025  0.0000  0.0011  0.0013  0.0000  0.0000  0.0000  0.0000  0.0000 </r>
        <r>  0.0064  0.0000  0.0028  0.0005  0.0000  0.0000  0.0000  0.0000  0.0000 </r>
        <r>  0.0159  0.0699  0.0037  0.0016  0.0000  0.0000  0.0000  0.0000  0.0000 </r>
        <r>  0.0062  0.0270  0.0014  0.0043  0.0000  0.0000  0.0000  0.0000  0.0000 </r>
        <r>  0.0159  0.0699  0.0037  0.0016  0.0000  0.0000  0.0000  0.0000  0.0000 </r>
        <r>  0.0062  0.0270  0.0014  0.0043  0.0000  0.0000  0.0000  0.0000  0.0000 </r>
        <r>  0.0025  0.0000  0.0011  0.0013  0.0000  0.0000  0.0000  0.0000  0.0000 </r>
        <r>  0.0064  0.0000  0.0028  0.0005  0.0000  0.0000  0.0000  0.0000  0.0000 </r>
        <r>  0.0001  0.0039  0.0001  0.0002  0.0000  0.0000  0.0000  0.0000  0.0000 </r>
        <r>  0.0003  0.0102  0.0003  0.0001  0.0000  0.0000  0.0000  0.0000  0.0000 </r>
       </set>
       <set comment="band 35">
        <r>  0.0119  0.0514  0.0020  0.0002  0.0000  0.0000  0.0000  0.0000  0.0000 </r>
        <r>  0.0008  0.0033  0.0001  0.0025  0.0000  0.0000  0.0000  0.0000  0.0000 </r>
        <r>  0.0123  0.0506  0.0044  0.0002  0.0000  0.0000  0.0000  0.0000  0.0000 </r>
        <r>  0.0008  0.0032  0.0003  0.0038  0.0000  0.0000  0.0000  0.0000  0.0000 </r>
        <r>  0.0002  0.0004  0.0002  0.0014  0.0000  0.0000  0.0000  0.0000  0.0000 </r>
        <r>  0.0025  0.0069  0.0034  0.0001  0.0000  0.0000  0.0000  0.0000  0.0000 </r>
        <r>  0.0002  0.0004  0.0002  0.0014  0.0000  0.0000  0.0000  0.0000  0.0000 </r>
        <r>  0.0025  0.0069  0.0034  0.0001  0.0000  0.0000  0.0000  0.0000  0.0000 </r>
        <r>  0.0123  0.0506  0.0044  0.0002  0.0000  0.0000  0.0000  0.0000  0.0000 </r>
        <r>  0.0008  0.0032  0.0003  0.0038  0.0000  0.0000  0.0000  0.0000  0.0000 </r>
        <r>  0.0119  0.0514  0.0020  0.0002  0.0000  0.0000  0.0000  0.0000  0.0000 </r>
        <r>  0.0008  0.0033  0.0001  0.0025  0.0000  0.0000  0.0000  0.0000  0.0000 </r>
       </set>
       <set comment="band 36">
        <r>  0.0008  0.0033  0.0001  0.0025  0.0000  0.0000  0.0000  0.0000  0.0000 </r>
        <r>  0.0119  0.0514  0.0020  0.0002  0.0000  0.0000  0.0000  0.0000  0.0000 </r>
        <r>  0.0008  0.0032  0.0003  0.0038  0.0000  0.0000  0.0000  0.0000  0.0000 </r>
        <r>  0.0123  0.0506  0.0044  0.0002  0.0000  0.0000  0.0000  0.0000  0.0000 </r>
        <r>  0.0025  0.0069  0.0034  0.0001  0.0000  0.0000  0.0000  0.0000  0.0000 </r>
        <r>  0.0002  0.0004  0.0002  0.0014  0.0000  0.0000  0.0000  0.0000  0.0000 </r>
        <r>  0.0025  0.0069  0.0034  0.0001  0.0000  0.0000  0.0000  0.0000  0.0000 </r>
        <r>  0.0002  0.0004  0.0002  0.0014  0.0000  0.0000  0.0000  0.0000  0.0000 </r>
        <r>  0.0008  0.0032  0.0003  0.0038  0.0000  0.0000  0.0000  0.0000  0.0000 </r>
        <r>  0.0123  0.0506  0.0044  0.0002  0.0000  0.0000  0.0000  0.0000  0.0000 </r>
        <r>  0.0008  0.0033  0.0001  0.0025  0.0000  0.0000  0.0000  0.0000  0.0000 </r>
        <r>  0.0119  0.0514  0.0020  0.0002  0.0000  0.0000  0.0000  0.0000  0.0000 </r>
       </set>
       <set comment="band 37">
        <r>  0.0005  0.0004  0.0095  0.0006  0.0000  0.0000  0.0000  0.0000  0.0000 </r>
        <r>  0.0001  0.0002  0.0013  0.0043  0.0000  0.0000  0.0000  0.0000  0.0000 </r>
        <r>  0.0005  0.0003  0.0100  0.0006  0.0000  0.0000  0.0000  0.0000  0.0000 </r>
        <r>  0.0001  0.0004  0.0014  0.0046  0.0000  0.0000  0.0000  0.0000  0.0000 </r>
        <r>  0.0051  0.0026  0.1211  0.0036  0.0000  0.0000  0.0000  0.0000  0.0000 </r>
        <r>  0.0003  0.0001  0.0082  0.0542  0.0000  0.0000  0.0000  0.0000  0.0000 </r>
        <r>  0.0051  0.0027  0.1206  0.0036  0.0000  0.0000  0.0000  0.0000  0.0000 </r>
        <r>  0.0003  0.0001  0.0082  0.0542  0.0000  0.0000  0.0000  0.0000  0.0000 </r>
        <r>  0.0005  0.0003  0.0098  0.0003  0.0000  0.0000  0.0000  0.0000  0.0000 </r>
        <r>  0.0000  0.0002  0.0009  0.0046  0.0000  0.0000  0.0000  0.0000  0.0000 </r>
        <r>  0.0005  0.0004  0.0094  0.0003  0.0000  0.0000  0.0000  0.0000  0.0000 </r>
        <r>  0.0000  0.0001  0.0007  0.0043  0.0000  0.0000  0.0000  0.0000  0.0000 </r>
       </set>
       <set comment="band 38">
        <r>  0.0009  0.0008  0.0148  0.0040  0.0000  0.0000  0.0000  0.0000  0.0000 </r>
        <r>  0.0004  0.0002  0.0086  0.0068  0.0000  0.0000  0.0000  0.0000  0.0000 </r>
        <r>  0.0007  0.0011  0.0143  0.0042  0.0000  0.0000  0.0000  0.0000  0.0000 </r>
        <r>  0.0004  0.0002  0.0099  0.0072  0.0000  0.0000  0.0000  0.0000  0.0000 </r>
        <r>  0.0003  0.0003  0.0054  0.0442  0.0000  0.0000  0.0000  0.0000  0.0000 </r>
        <r>  0.0040  0.0015  0.1004  0.0024  0.0000  0.0000  0.0000  0.0000  0.0000 </r>
        <r>  0.0003  0.0003  0.0052  0.0442  0.0000  0.0000  0.0000  0.0000  0.0000 </r>
        <r>  0.0038  0.0016  0.0984  0.0025  0.0000  0.0000  0.0000  0.0000  0.0000 </r>
        <r>  0.0008  0.0009  0.0178  0.0021  0.0000  0.0000  0.0000  0.0000  0.0000 </r>
        <r>  0.0002  0.0000  0.0053  0.0082  0.0000  0.0000  0.0000  0.0000  0.0000 </r>
        <r>  0.0009  0.0007  0.0168  0.0021  0.0000  0.0000  0.0000  0.0000  0.0000 </r>
        <r>  0.0002  0.0001  0.0044  0.0078  0.0000  0.0000  0.0000  0.0000  0.0000 </r>
       </set>
       <set comment="band 39">
        <r>  0.0004  0.0002  0.0080  0.0238  0.0000  0.0000  0.0000  0.0000  0.0000 </r>
        <r>  0.0025  0.0019  0.0524  0.0038  0.0000  0.0000  0.0000  0.0000  0.0000 </r>
        <r>  0.0004  0.0002  0.0091  0.0254  0.0000  0.0000  0.0000  0.0000  0.0000 </r>
        <r>  0.0029  0.0016  0.0551  0.0039  0.0000  0.0000  0.0000  0.0000  0.0000 </r>
        <r>  0.0000  0.0000  0.0001  0.0000  0.0000  0.0000  0.0000  0.0000  0.0000 </r>
        <r>  0.0000  0.0000  0.0001  0.0000  0.0000  0.0000  0.0000  0.0000  0.0000 </r>
        <r>  0.0000  0.0001  0.0002  0.0000  0.0000  0.0000  0.0000  0.0000  0.0000 </r>
        <r>  0.0000  0.0000  0.0001  0.0000  0.0000  0.0000  0.0000  0.0000  0.0000 </r>
        <r>  0.0004  0.0002  0.0106  0.0355  0.0000  0.0000  0.0000  0.0000  0.0000 </r>
        <r>  0.0039  0.0021  0.0780  0.0046  0.0000  0.0000  0.0000  0.0000  0.0000 </r>
        <r>  0.0004  0.0002  0.0093  0.0334  0.0000  0.0000  0.0000  0.0000  0.0000 </r>
        <r>  0.0035  0.0026  0.0731  0.0044  0.0000  0.0000  0.0000  0.0000  0.0000 </r>
       </set>
       <set comment="band 40">
        <r>  0.0009  0.0005  0.0205  0.0255  0.0000  0.0000  0.0000  0.0000  0.0000 </r>
        <r>  0.0024  0.0013  0.0537  0.0096  0.0000  0.0000  0.0000  0.0000  0.0000 </r>
        <r>  0.0010  0.0005  0.0232  0.0266  0.0000  0.0000  0.0000  0.0000  0.0000 </r>
        <r>  0.0024  0.0013  0.0620  0.0101  0.0000  0.0000  0.0000  0.0000  0.0000 </r>
        <r>  0.0000  0.0004  0.0001  0.0000  0.0000  0.0000  0.0000  0.0000  0.0000 </r>
        <r>  0.0000  0.0001  0.0000  0.0000  0.0000  0.0000  0.0000  0.0000  0.0000 </r>
        <r>  0.0000  0.0003  0.0001  0.0000  0.0000  0.0000  0.0000  0.0000  0.0000 </r>
        <r>  0.0000  0.0001  0.0000  0.0000  0.0000  0.0000  0.0000  0.0000  0.0000 </r>
        <r>  0.0007  0.0004  0.0168  0.0253  0.0000  0.0000  0.0000  0.0000  0.0000 </r>
        <r>  0.0023  0.0012  0.0592  0.0072  0.0000  0.0000  0.0000  0.0000  0.0000 </r>
        <r>  0.0007  0.0004  0.0147  0.0243  0.0000  0.0000  0.0000  0.0000  0.0000 </r>
        <r>  0.0023  0.0012  0.0511  0.0069  0.0000  0.0000  0.0000  0.0000  0.0000 </r>
       </set>
      </set>
     </set>
    </set>
   </array>
  </projected>
 </calculation>
 <structure name="finalpos" >
  <crystal>
   <varray name="basis" >
    <v>       3.34288600       0.00000000       0.00000000 </v>
    <v>       0.00000000      32.60240900       0.00000000 </v>
    <v>       0.00000000       0.00000000       4.37483100 </v>
   </varray>
   <i name="volume">    476.79592902 </i>
   <varray name="rec_basis" >
    <v>       0.29914272       0.00000000       0.00000000 </v>
    <v>       0.00000000       0.03067258       0.00000000 </v>
    <v>       0.00000000       0.00000000       0.22858026 </v>
   </varray>
  </crystal>
  <varray name="positions" >
   <v>       0.00000000       0.30672600       0.91892400 </v>
   <v>       0.50000000       0.30672600       0.58107600 </v>
   <v>       0.00000000       0.37246700       0.08107600 </v>
   <v>       0.50000000       0.37246700       0.41892400 </v>
   <v>       0.50000000       0.46712900       0.91892400 </v>
   <v>       0.00000000       0.46712900       0.58107600 </v>
   <v>       0.50000000       0.53287100       0.08107600 </v>
   <v>       0.00000000       0.53287100       0.41892400 </v>
   <v>       0.00000000       0.62753300       0.91892400 </v>
   <v>       0.50000000       0.62753300       0.58107600 </v>
   <v>       0.00000000       0.69327400       0.08107600 </v>
   <v>       0.50000000       0.69327400       0.41892400 </v>
  </varray>
 </structure>
</modeling>
