PROCAR lm decomposed
# of k-points:   20         # of bands:   40         # of ions:   12

 k-point     1 :    0.00000000 0.00000000 0.00000000     weight = 0.02083333

band     1 # energy  -14.94904765 # occ.  2.00000000
 
ion      s     py     pz     px    dxy    dyz    dz2    dxz  x2-y2    tot
    1  0.010  0.000  0.000  0.000  0.000  0.000  0.000  0.000  0.000  0.010
    2  0.010  0.000  0.000  0.000  0.000  0.000  0.000  0.000  0.000  0.010
    3  0.016  0.000  0.000  0.000  0.000  0.000  0.000  0.000  0.000  0.016
    4  0.016  0.000  0.000  0.000  0.000  0.000  0.000  0.000  0.000  0.016
    5  0.097  0.003  0.002  0.000  0.000  0.000  0.000  0.000  0.000  0.101
    6  0.097  0.003  0.002  0.000  0.000  0.000  0.000  0.000  0.000  0.101
    7  0.097  0.003  0.002  0.000  0.000  0.000  0.000  0.000  0.000  0.101
    8  0.097  0.003  0.002  0.000  0.000  0.000  0.000  0.000  0.000  0.101
    9  0.016  0.000  0.000  0.000  0.000  0.000  0.000  0.000  0.000  0.016
   10  0.016  0.000  0.000  0.000  0.000  0.000  0.000  0.000  0.000  0.016
   11  0.010  0.000  0.000  0.000  0.000  0.000  0.000  0.000  0.000  0.010
   12  0.010  0.000  0.000  0.000  0.000  0.000  0.000  0.000  0.000  0.010
tot    0.489  0.014  0.008  0.000  0.000  0.000  0.000  0.000  0.000  0.511
 
band     2 # energy  -14.76725285 # occ.  2.00000000
 
ion      s     py     pz     px    dxy    dyz    dz2    dxz  x2-y2    tot
    1  0.057  0.002  0.001  0.000  0.000  0.000  0.000  0.000  0.000  0.060
    2  0.057  0.002  0.001  0.000  0.000  0.000  0.000  0.000  0.000  0.060
    3  0.065  0.002  0.001  0.000  0.000  0.000  0.000  0.000  0.000  0.068
    4  0.065  0.002  0.001  0.000  0.000  0.000  0.000  0.000  0.000  0.068
    5  0.000  0.000  0.000  0.000  0.000  0.000  0.000  0.000  0.000  0.000
    6  0.000  0.000  0.000  0.000  0.000  0.000  0.000  0.000  0.000  0.000
    7  0.000  0.000  0.000  0.000  0.000  0.000  0.000  0.000  0.000  0.000
    8  0.000  0.000  0.000  0.000  0.000  0.000  0.000  0.000  0.000  0.000
    9  0.065  0.002  0.001  0.000  0.000  0.000  0.000  0.000  0.000  0.068
   10  0.065  0.002  0.001  0.000  0.000  0.000  0.000  0.000  0.000  0.068
   11  0.057  0.002  0.001  0.000  0.000  0.000  0.000  0.000  0.000  0.060
   12  0.057  0.002  0.001  0.000  0.000  0.000  0.000  0.000  0.000  0.060
tot    0.490  0.017  0.008  0.000  0.000  0.000  0.000  0.000  0.000  0.514
 
band     3 # energy  -14.71005708 # occ.  2.00000000
 
ion      s     py     pz     px    dxy    dyz    dz2    dxz  x2-y2    tot
    1  0.048  0.002  0.001  0.000  0.000  0.000  0.000  0.000  0.000  0.051
    2  0.048  0.002  0.001  0.000  0.000  0.000  0.000  0.000  0.000  0.051
    3  0.049  0.002  0.001  0.000  0.000  0.000  0.000  0.000  0.000  0.051
    4  0.049  0.002  0.001  0.000  0.000  0.000  0.000  0.000  0.000  0.051
    5  0.026  0.001  0.000  0.000  0.000  0.000  0.000  0.000  0.000  0.027
    6  0.026  0.001  0.000  0.000  0.000  0.000  0.000  0.000  0.000  0.027
    7  0.026  0.001  0.000  0.000  0.000  0.000  0.000  0.000  0.000  0.027
    8  0.026  0.001  0.000  0.000  0.000  0.000  0.000  0.000  0.000  0.027
    9  0.049  0.002  0.001  0.000  0.000  0.000  0.000  0.000  0.000  0.051
   10  0.049  0.002  0.001  0.000  0.000  0.000  0.000  0.000  0.000  0.051
   11  0.048  0.002  0.001  0.000  0.000  0.000  0.000  0.000  0.000  0.051
   12  0.048  0.002  0.001  0.000  0.000  0.000  0.000  0.000  0.000  0.051
tot    0.491  0.019  0.008  0.000  0.000  0.000  0.000  0.000  0.000  0.518
 
band     4 # energy  -12.47622503 # occ.  2.00000000
 
ion      s     py     pz     px    dxy    dyz    dz2    dxz  x2-y2    tot
    1  0.026  0.000  0.002  0.000  0.000  0.000  0.000  0.000  0.000  0.028
    2  0.026  0.000  0.002  0.000  0.000  0.000  0.000  0.000  0.000  0.028
    3  0.016  0.001  0.001  0.000  0.000  0.000  0.000  0.000  0.000  0.018
    4  0.016  0.001  0.001  0.000  0.000  0.000  0.000  0.000  0.000  0.018
    5  0.082  0.001  0.007  0.000  0.000  0.000  0.000  0.000  0.000  0.090
    6  0.082  0.001  0.007  0.000  0.000  0.000  0.000  0.000  0.000  0.090
    7  0.082  0.001  0.007  0.000  0.000  0.000  0.000  0.000  0.000  0.090
    8  0.082  0.001  0.007  0.000  0.000  0.000  0.000  0.000  0.000  0.090
    9  0.016  0.001  0.001  0.000  0.000  0.000  0.000  0.000  0.000  0.018
   10  0.016  0.001  0.001  0.000  0.000  0.000  0.000  0.000  0.000  0.018
   11  0.026  0.000  0.002  0.000  0.000  0.000  0.000  0.000  0.000  0.028
   12  0.026  0.000  0.002  0.000  0.000  0.000  0.000  0.000  0.000  0.028
tot    0.493  0.009  0.040  0.000  0.000  0.000  0.000  0.000  0.000  0.542
 
band     5 # energy  -12.16565695 # occ.  2.00000000
 
ion      s     py     pz     px    dxy    dyz    dz2    dxz  x2-y2    tot
    1  0.066  0.001  0.006  0.000  0.000  0.000  0.000  0.000  0.000  0.072
    2  0.066  0.001  0.006  0.000  0.000  0.000  0.000  0.000  0.000  0.072
    3  0.059  0.001  0.006  0.000  0.000  0.000  0.000  0.000  0.000  0.066
    4  0.059  0.001  0.006  0.000  0.000  0.000  0.000  0.000  0.000  0.066
    5  0.000  0.000  0.000  0.000  0.000  0.000  0.000  0.000  0.000  0.001
    6  0.000  0.000  0.000  0.000  0.000  0.000  0.000  0.000  0.000  0.001
    7  0.000  0.000  0.000  0.000  0.000  0.000  0.000  0.000  0.000  0.001
    8  0.000  0.000  0.000  0.000  0.000  0.000  0.000  0.000  0.000  0.001
    9  0.059  0.001  0.006  0.000  0.000  0.000  0.000  0.000  0.000  0.066
   10  0.059  0.001  0.006  0.000  0.000  0.000  0.000  0.000  0.000  0.066
   11  0.066  0.001  0.006  0.000  0.000  0.000  0.000  0.000  0.000  0.072
   12  0.066  0.001  0.006  0.000  0.000  0.000  0.000  0.000  0.000  0.072
tot    0.504  0.007  0.046  0.000  0.000  0.000  0.000  0.000  0.000  0.557
 
band     6 # energy  -12.00766927 # occ.  2.00000000
 
ion      s     py     pz     px    dxy    dyz    dz2    dxz  x2-y2    tot
    1  0.041  0.001  0.004  0.000  0.000  0.000  0.000  0.000  0.000  0.046
    2  0.041  0.001  0.004  0.000  0.000  0.000  0.000  0.000  0.000  0.046
    3  0.043  0.000  0.004  0.000  0.000  0.000  0.000  0.000  0.000  0.048
    4  0.043  0.000  0.004  0.000  0.000  0.000  0.000  0.000  0.000  0.048
    5  0.044  0.000  0.005  0.000  0.000  0.000  0.000  0.000  0.000  0.048
    6  0.044  0.000  0.005  0.000  0.000  0.000  0.000  0.000  0.000  0.048
    7  0.044  0.000  0.005  0.000  0.000  0.000  0.000  0.000  0.000  0.048
    8  0.044  0.000  0.005  0.000  0.000  0.000  0.000  0.000  0.000  0.048
    9  0.043  0.000  0.004  0.000  0.000  0.000  0.000  0.000  0.000  0.048
   10  0.043  0.000  0.004  0.000  0.000  0.000  0.000  0.000  0.000  0.048
   11  0.041  0.001  0.004  0.000  0.000  0.000  0.000  0.000  0.000  0.046
   12  0.041  0.001  0.004  0.000  0.000  0.000  0.000  0.000  0.000  0.046
tot    0.514  0.004  0.053  0.000  0.000  0.000  0.000  0.000  0.000  0.570
 
band     7 # energy   -8.71920846 # occ.  2.00000000
 
ion      s     py     pz     px    dxy    dyz    dz2    dxz  x2-y2    tot
    1  0.010  0.001  0.001  0.000  0.000  0.000  0.000  0.000  0.000  0.012
    2  0.010  0.001  0.001  0.000  0.000  0.000  0.000  0.000  0.000  0.012
    3  0.014  0.001  0.001  0.000  0.000  0.000  0.000  0.000  0.000  0.016
    4  0.014  0.001  0.001  0.000  0.000  0.000  0.000  0.000  0.000  0.016
    5  0.102  0.009  0.009  0.000  0.000  0.000  0.000  0.000  0.000  0.121
    6  0.102  0.009  0.009  0.000  0.000  0.000  0.000  0.000  0.000  0.121
    7  0.102  0.009  0.009  0.000  0.000  0.000  0.000  0.000  0.000  0.121
    8  0.102  0.009  0.009  0.000  0.000  0.000  0.000  0.000  0.000  0.121
    9  0.014  0.001  0.001  0.000  0.000  0.000  0.000  0.000  0.000  0.016
   10  0.014  0.001  0.001  0.000  0.000  0.000  0.000  0.000  0.000  0.016
   11  0.010  0.001  0.001  0.000  0.000  0.000  0.000  0.000  0.000  0.012
   12  0.010  0.001  0.001  0.000  0.000  0.000  0.000  0.000  0.000  0.012
tot    0.505  0.045  0.046  0.000  0.000  0.000  0.000  0.000  0.000  0.596
 
band     8 # energy   -8.55300399 # occ.  2.00000000
 
ion      s     py     pz     px    dxy    dyz    dz2    dxz  x2-y2    tot
    1  0.061  0.007  0.006  0.000  0.000  0.000  0.000  0.000  0.000  0.073
    2  0.061  0.007  0.006  0.000  0.000  0.000  0.000  0.000  0.000  0.073
    3  0.065  0.006  0.006  0.000  0.000  0.000  0.000  0.000  0.000  0.077
    4  0.065  0.006  0.006  0.000  0.000  0.000  0.000  0.000  0.000  0.077
    5  0.000  0.000  0.000  0.000  0.000  0.000  0.000  0.000  0.000  0.000
    6  0.000  0.000  0.000  0.000  0.000  0.000  0.000  0.000  0.000  0.000
    7  0.000  0.000  0.000  0.000  0.000  0.000  0.000  0.000  0.000  0.000
    8  0.000  0.000  0.000  0.000  0.000  0.000  0.000  0.000  0.000  0.000
    9  0.065  0.006  0.006  0.000  0.000  0.000  0.000  0.000  0.000  0.077
   10  0.065  0.006  0.006  0.000  0.000  0.000  0.000  0.000  0.000  0.077
   11  0.061  0.007  0.006  0.000  0.000  0.000  0.000  0.000  0.000  0.073
   12  0.061  0.007  0.006  0.000  0.000  0.000  0.000  0.000  0.000  0.073
tot    0.502  0.051  0.046  0.000  0.000  0.000  0.000  0.000  0.000  0.599
 
band     9 # energy   -8.50980803 # occ.  2.00000000
 
ion      s     py     pz     px    dxy    dyz    dz2    dxz  x2-y2    tot
    1  0.051  0.005  0.005  0.000  0.000  0.000  0.000  0.000  0.000  0.061
    2  0.051  0.005  0.005  0.000  0.000  0.000  0.000  0.000  0.000  0.061
    3  0.051  0.006  0.005  0.000  0.000  0.000  0.000  0.000  0.000  0.061
    4  0.051  0.006  0.005  0.000  0.000  0.000  0.000  0.000  0.000  0.061
    5  0.023  0.003  0.002  0.000  0.000  0.000  0.000  0.000  0.000  0.028
    6  0.023  0.003  0.002  0.000  0.000  0.000  0.000  0.000  0.000  0.028
    7  0.023  0.003  0.002  0.000  0.000  0.000  0.000  0.000  0.000  0.028
    8  0.023  0.003  0.002  0.000  0.000  0.000  0.000  0.000  0.000  0.028
    9  0.051  0.006  0.005  0.000  0.000  0.000  0.000  0.000  0.000  0.061
   10  0.051  0.006  0.005  0.000  0.000  0.000  0.000  0.000  0.000  0.061
   11  0.051  0.005  0.005  0.000  0.000  0.000  0.000  0.000  0.000  0.061
   12  0.051  0.005  0.005  0.000  0.000  0.000  0.000  0.000  0.000  0.061
tot    0.499  0.057  0.046  0.000  0.000  0.000  0.000  0.000  0.000  0.602
 
band    10 # energy   -6.05893446 # occ.  2.00000000
 
ion      s     py     pz     px    dxy    dyz    dz2    dxz  x2-y2    tot
    1  0.001  0.009  0.006  0.000  0.000  0.000  0.000  0.000  0.000  0.016
    2  0.001  0.009  0.006  0.000  0.000  0.000  0.000  0.000  0.000  0.016
    3  0.000  0.022  0.000  0.000  0.000  0.000  0.000  0.000  0.000  0.022
    4  0.000  0.022  0.000  0.000  0.000  0.000  0.000  0.000  0.000  0.022
    5  0.001  0.050  0.007  0.000  0.000  0.000  0.000  0.000  0.000  0.058
    6  0.001  0.050  0.007  0.000  0.000  0.000  0.000  0.000  0.000  0.058
    7  0.001  0.050  0.007  0.000  0.000  0.000  0.000  0.000  0.000  0.058
    8  0.001  0.050  0.007  0.000  0.000  0.000  0.000  0.000  0.000  0.058
    9  0.000  0.022  0.000  0.000  0.000  0.000  0.000  0.000  0.000  0.022
   10  0.000  0.022  0.000  0.000  0.000  0.000  0.000  0.000  0.000  0.022
   11  0.001  0.009  0.006  0.000  0.000  0.000  0.000  0.000  0.000  0.016
   12  0.001  0.009  0.006  0.000  0.000  0.000  0.000  0.000  0.000  0.016
tot    0.008  0.323  0.052  0.000  0.000  0.000  0.000  0.000  0.000  0.383
 
band    11 # energy   -5.62385940 # occ.  2.00000000
 
ion      s     py     pz     px    dxy    dyz    dz2    dxz  x2-y2    tot
    1  0.002  0.028  0.011  0.000  0.000  0.000  0.000  0.000  0.000  0.040
    2  0.002  0.028  0.011  0.000  0.000  0.000  0.000  0.000  0.000  0.040
    3  0.001  0.039  0.004  0.000  0.000  0.000  0.000  0.000  0.000  0.044
    4  0.001  0.039  0.004  0.000  0.000  0.000  0.000  0.000  0.000  0.044
    5  0.000  0.004  0.011  0.000  0.000  0.000  0.000  0.000  0.000  0.015
    6  0.000  0.004  0.011  0.000  0.000  0.000  0.000  0.000  0.000  0.015
    7  0.000  0.004  0.011  0.000  0.000  0.000  0.000  0.000  0.000  0.015
    8  0.000  0.004  0.011  0.000  0.000  0.000  0.000  0.000  0.000  0.015
    9  0.001  0.039  0.004  0.000  0.000  0.000  0.000  0.000  0.000  0.044
   10  0.001  0.039  0.004  0.000  0.000  0.000  0.000  0.000  0.000  0.044
   11  0.002  0.028  0.011  0.000  0.000  0.000  0.000  0.000  0.000  0.040
   12  0.002  0.028  0.011  0.000  0.000  0.000  0.000  0.000  0.000  0.040
tot    0.011  0.280  0.103  0.000  0.000  0.000  0.000  0.000  0.000  0.394
 
band    12 # energy   -5.17760664 # occ.  2.00000000
 
ion      s     py     pz     px    dxy    dyz    dz2    dxz  x2-y2    tot
    1  0.001  0.032  0.003  0.000  0.000  0.000  0.000  0.000  0.000  0.036
    2  0.001  0.032  0.003  0.000  0.000  0.000  0.000  0.000  0.000  0.036
    3  0.001  0.017  0.021  0.000  0.000  0.000  0.000  0.000  0.000  0.039
    4  0.001  0.017  0.021  0.000  0.000  0.000  0.000  0.000  0.000  0.039
    5  0.001  0.020  0.011  0.000  0.000  0.000  0.000  0.000  0.000  0.032
    6  0.001  0.020  0.011  0.000  0.000  0.000  0.000  0.000  0.000  0.032
    7  0.001  0.020  0.011  0.000  0.000  0.000  0.000  0.000  0.000  0.032
    8  0.001  0.020  0.011  0.000  0.000  0.000  0.000  0.000  0.000  0.032
    9  0.001  0.017  0.021  0.000  0.000  0.000  0.000  0.000  0.000  0.039
   10  0.001  0.017  0.021  0.000  0.000  0.000  0.000  0.000  0.000  0.039
   11  0.001  0.032  0.003  0.000  0.000  0.000  0.000  0.000  0.000  0.036
   12  0.001  0.032  0.003  0.000  0.000  0.000  0.000  0.000  0.000  0.036
tot    0.015  0.274  0.141  0.000  0.000  0.000  0.000  0.000  0.000  0.430
 
band    13 # energy   -4.78883105 # occ.  2.00000000
 
ion      s     py     pz     px    dxy    dyz    dz2    dxz  x2-y2    tot
    1  0.027  0.000  0.003  0.000  0.000  0.000  0.000  0.000  0.000  0.030
    2  0.027  0.000  0.003  0.000  0.000  0.000  0.000  0.000  0.000  0.030
    3  0.023  0.005  0.002  0.000  0.000  0.000  0.000  0.000  0.000  0.030
    4  0.023  0.005  0.002  0.000  0.000  0.000  0.000  0.000  0.000  0.030
    5  0.079  0.005  0.008  0.000  0.000  0.000  0.000  0.000  0.000  0.092
    6  0.079  0.005  0.008  0.000  0.000  0.000  0.000  0.000  0.000  0.092
    7  0.079  0.005  0.008  0.000  0.000  0.000  0.000  0.000  0.000  0.092
    8  0.079  0.005  0.008  0.000  0.000  0.000  0.000  0.000  0.000  0.092
    9  0.023  0.005  0.002  0.000  0.000  0.000  0.000  0.000  0.000  0.030
   10  0.023  0.005  0.002  0.000  0.000  0.000  0.000  0.000  0.000  0.030
   11  0.027  0.000  0.003  0.000  0.000  0.000  0.000  0.000  0.000  0.030
   12  0.027  0.000  0.003  0.000  0.000  0.000  0.000  0.000  0.000  0.030
tot    0.512  0.042  0.052  0.000  0.000  0.000  0.000  0.000  0.000  0.606
 
band    14 # energy   -4.58316407 # occ.  2.00000000
 
ion      s     py     pz     px    dxy    dyz    dz2    dxz  x2-y2    tot
    1  0.001  0.019  0.005  0.000  0.000  0.000  0.000  0.000  0.000  0.025
    2  0.001  0.019  0.005  0.000  0.000  0.000  0.000  0.000  0.000  0.025
    3  0.000  0.000  0.034  0.000  0.000  0.000  0.000  0.000  0.000  0.034
    4  0.000  0.000  0.034  0.000  0.000  0.000  0.000  0.000  0.000  0.034
    5  0.000  0.007  0.022  0.000  0.000  0.000  0.000  0.000  0.000  0.030
    6  0.000  0.007  0.022  0.000  0.000  0.000  0.000  0.000  0.000  0.030
    7  0.000  0.007  0.022  0.000  0.000  0.000  0.000  0.000  0.000  0.030
    8  0.000  0.007  0.022  0.000  0.000  0.000  0.000  0.000  0.000  0.030
    9  0.000  0.000  0.034  0.000  0.000  0.000  0.000  0.000  0.000  0.034
   10  0.000  0.000  0.034  0.000  0.000  0.000  0.000  0.000  0.000  0.034
   11  0.001  0.019  0.005  0.000  0.000  0.000  0.000  0.000  0.000  0.025
   12  0.001  0.019  0.005  0.000  0.000  0.000  0.000  0.000  0.000  0.025
tot    0.004  0.108  0.245  0.000  0.000  0.000  0.000  0.000  0.000  0.357
 
band    15 # energy   -4.26956020 # occ.  2.00000000
 
ion      s     py     pz     px    dxy    dyz    dz2    dxz  x2-y2    tot
    1  0.068  0.003  0.007  0.000  0.000  0.000  0.000  0.000  0.000  0.078
    2  0.068  0.003  0.007  0.000  0.000  0.000  0.000  0.000  0.000  0.078
    3  0.066  0.005  0.007  0.000  0.000  0.000  0.000  0.000  0.000  0.077
    4  0.066  0.005  0.007  0.000  0.000  0.000  0.000  0.000  0.000  0.077
    5  0.000  0.002  0.000  0.000  0.000  0.000  0.000  0.000  0.000  0.002
    6  0.000  0.002  0.000  0.000  0.000  0.000  0.000  0.000  0.000  0.002
    7  0.000  0.002  0.000  0.000  0.000  0.000  0.000  0.000  0.000  0.002
    8  0.000  0.002  0.000  0.000  0.000  0.000  0.000  0.000  0.000  0.002
    9  0.066  0.005  0.007  0.000  0.000  0.000  0.000  0.000  0.000  0.077
   10  0.066  0.005  0.007  0.000  0.000  0.000  0.000  0.000  0.000  0.077
   11  0.068  0.003  0.007  0.000  0.000  0.000  0.000  0.000  0.000  0.078
   12  0.068  0.003  0.007  0.000  0.000  0.000  0.000  0.000  0.000  0.078
tot    0.535  0.039  0.056  0.000  0.000  0.000  0.000  0.000  0.000  0.630
 
band    16 # energy   -4.17631278 # occ.  2.00000000
 
ion      s     py     pz     px    dxy    dyz    dz2    dxz  x2-y2    tot
    1  0.001  0.006  0.033  0.000  0.000  0.000  0.000  0.000  0.000  0.040
    2  0.001  0.006  0.033  0.000  0.000  0.000  0.000  0.000  0.000  0.040
    3  0.001  0.009  0.025  0.000  0.000  0.000  0.000  0.000  0.000  0.035
    4  0.001  0.009  0.025  0.000  0.000  0.000  0.000  0.000  0.000  0.035
    5  0.001  0.007  0.009  0.000  0.000  0.000  0.000  0.000  0.000  0.016
    6  0.001  0.007  0.009  0.000  0.000  0.000  0.000  0.000  0.000  0.016
    7  0.001  0.007  0.009  0.000  0.000  0.000  0.000  0.000  0.000  0.016
    8  0.001  0.007  0.009  0.000  0.000  0.000  0.000  0.000  0.000  0.016
    9  0.001  0.009  0.025  0.000  0.000  0.000  0.000  0.000  0.000  0.035
   10  0.001  0.009  0.025  0.000  0.000  0.000  0.000  0.000  0.000  0.035
   11  0.001  0.006  0.033  0.000  0.000  0.000  0.000  0.000  0.000  0.040
   12  0.001  0.006  0.033  0.000  0.000  0.000  0.000  0.000  0.000  0.040
tot    0.011  0.086  0.266  0.000  0.000  0.000  0.000  0.000  0.000  0.362
 
band    17 # energy   -4.03711899 # occ.  2.00000000
 
ion      s     py     pz     px    dxy    dyz    dz2    dxz  x2-y2    tot
    1  0.000  0.000  0.027  0.000  0.000  0.000  0.000  0.000  0.000  0.028
    2  0.000  0.000  0.027  0.000  0.000  0.000  0.000  0.000  0.000  0.028
    3  0.002  0.009  0.008  0.000  0.000  0.000  0.000  0.000  0.000  0.019
    4  0.002  0.009  0.008  0.000  0.000  0.000  0.000  0.000  0.000  0.019
    5  0.003  0.005  0.032  0.000  0.000  0.000  0.000  0.000  0.000  0.041
    6  0.003  0.005  0.032  0.000  0.000  0.000  0.000  0.000  0.000  0.041
    7  0.003  0.005  0.032  0.000  0.000  0.000  0.000  0.000  0.000  0.041
    8  0.003  0.005  0.032  0.000  0.000  0.000  0.000  0.000  0.000  0.041
    9  0.002  0.009  0.008  0.000  0.000  0.000  0.000  0.000  0.000  0.019
   10  0.002  0.009  0.008  0.000  0.000  0.000  0.000  0.000  0.000  0.019
   11  0.000  0.000  0.027  0.000  0.000  0.000  0.000  0.000  0.000  0.028
   12  0.000  0.000  0.027  0.000  0.000  0.000  0.000  0.000  0.000  0.028
tot    0.020  0.060  0.272  0.000  0.000  0.000  0.000  0.000  0.000  0.352
 
band    18 # energy   -3.84632322 # occ.  2.00000000
 
ion      s     py     pz     px    dxy    dyz    dz2    dxz  x2-y2    tot
    1  0.044  0.003  0.005  0.000  0.000  0.000  0.000  0.000  0.000  0.053
    2  0.044  0.003  0.005  0.000  0.000  0.000  0.000  0.000  0.000  0.053
    3  0.044  0.001  0.005  0.000  0.000  0.000  0.000  0.000  0.000  0.050
    4  0.044  0.001  0.005  0.000  0.000  0.000  0.000  0.000  0.000  0.050
    5  0.055  0.002  0.006  0.000  0.000  0.000  0.000  0.000  0.000  0.064
    6  0.055  0.002  0.006  0.000  0.000  0.000  0.000  0.000  0.000  0.064
    7  0.055  0.002  0.006  0.000  0.000  0.000  0.000  0.000  0.000  0.064
    8  0.055  0.002  0.006  0.000  0.000  0.000  0.000  0.000  0.000  0.064
    9  0.044  0.001  0.005  0.000  0.000  0.000  0.000  0.000  0.000  0.050
   10  0.044  0.001  0.005  0.000  0.000  0.000  0.000  0.000  0.000  0.050
   11  0.044  0.003  0.005  0.000  0.000  0.000  0.000  0.000  0.000  0.053
   12  0.044  0.003  0.005  0.000  0.000  0.000  0.000  0.000  0.000  0.053
tot    0.577  0.024  0.063  0.000  0.000  0.000  0.000  0.000  0.000  0.665
 
band    19 # energy   -3.48759218 # occ.  2.00000000
 
ion      s     py     pz     px    dxy    dyz    dz2    dxz  x2-y2    tot
    1  0.000  0.000  0.000  0.007  0.000  0.000  0.000  0.000  0.000  0.007
    2  0.000  0.000  0.000  0.007  0.000  0.000  0.000  0.000  0.000  0.007
    3  0.000  0.000  0.000  0.013  0.000  0.000  0.000  0.000  0.000  0.013
    4  0.000  0.000  0.000  0.013  0.000  0.000  0.000  0.000  0.000  0.013
    5  0.000  0.000  0.000  0.104  0.000  0.000  0.000  0.000  0.000  0.104
    6  0.000  0.000  0.000  0.104  0.000  0.000  0.000  0.000  0.000  0.104
    7  0.000  0.000  0.000  0.104  0.000  0.000  0.000  0.000  0.000  0.104
    8  0.000  0.000  0.000  0.104  0.000  0.000  0.000  0.000  0.000  0.104
    9  0.000  0.000  0.000  0.013  0.000  0.000  0.000  0.000  0.000  0.013
   10  0.000  0.000  0.000  0.013  0.000  0.000  0.000  0.000  0.000  0.013
   11  0.000  0.000  0.000  0.007  0.000  0.000  0.000  0.000  0.000  0.007
   12  0.000  0.000  0.000  0.007  0.000  0.000  0.000  0.000  0.000  0.007
tot    0.000  0.000  0.000  0.497  0.000  0.000  0.000  0.000  0.000  0.497
 
band    20 # energy   -3.32639877 # occ.  2.00000000
 
ion      s     py     pz     px    dxy    dyz    dz2    dxz  x2-y2    tot
    1  0.000  0.000  0.000  0.056  0.000  0.000  0.000  0.000  0.000  0.056
    2  0.000  0.000  0.000  0.056  0.000  0.000  0.000  0.000  0.000  0.056
    3  0.000  0.000  0.000  0.068  0.000  0.000  0.000  0.000  0.000  0.068
    4  0.000  0.000  0.000  0.068  0.000  0.000  0.000  0.000  0.000  0.068
    5  0.000  0.000  0.000  0.000  0.000  0.000  0.000  0.000  0.000  0.000
    6  0.000  0.000  0.000  0.000  0.000  0.000  0.000  0.000  0.000  0.000
    7  0.000  0.000  0.000  0.000  0.000  0.000  0.000  0.000  0.000  0.000
    8  0.000  0.000  0.000  0.000  0.000  0.000  0.000  0.000  0.000  0.000
    9  0.000  0.000  0.000  0.068  0.000  0.000  0.000  0.000  0.000  0.068
   10  0.000  0.000  0.000  0.068  0.000  0.000  0.000  0.000  0.000  0.068
   11  0.000  0.000  0.000  0.056  0.000  0.000  0.000  0.000  0.000  0.056
   12  0.000  0.000  0.000  0.056  0.000  0.000  0.000  0.000  0.000  0.056
tot    0.000  0.000  0.000  0.499  0.000  0.000  0.000  0.000  0.000  0.499
 
band    21 # energy   -3.28963254 # occ.  2.00000000
 
ion      s     py     pz     px    dxy    dyz    dz2    dxz  x2-y2    tot
    1  0.000  0.000  0.000  0.050  0.000  0.000  0.000  0.000  0.000  0.050
    2  0.000  0.000  0.000  0.050  0.000  0.000  0.000  0.000  0.000  0.050
    3  0.000  0.000  0.000  0.055  0.000  0.000  0.000  0.000  0.000  0.055
    4  0.000  0.000  0.000  0.055  0.000  0.000  0.000  0.000  0.000  0.055
    5  0.000  0.000  0.000  0.020  0.000  0.000  0.000  0.000  0.000  0.020
    6  0.000  0.000  0.000  0.020  0.000  0.000  0.000  0.000  0.000  0.020
    7  0.000  0.000  0.000  0.020  0.000  0.000  0.000  0.000  0.000  0.020
    8  0.000  0.000  0.000  0.020  0.000  0.000  0.000  0.000  0.000  0.020
    9  0.000  0.000  0.000  0.055  0.000  0.000  0.000  0.000  0.000  0.055
   10  0.000  0.000  0.000  0.055  0.000  0.000  0.000  0.000  0.000  0.055
   11  0.000  0.000  0.000  0.050  0.000  0.000  0.000  0.000  0.000  0.050
   12  0.000  0.000  0.000  0.050  0.000  0.000  0.000  0.000  0.000  0.050
tot    0.000  0.000  0.000  0.501  0.000  0.000  0.000  0.000  0.000  0.501
 
band    22 # energy   -2.01127699 # occ.  2.00000000
 
ion      s     py     pz     px    dxy    dyz    dz2    dxz  x2-y2    tot
    1  0.001  0.000  0.029  0.000  0.000  0.000  0.000  0.000  0.000  0.030
    2  0.001  0.000  0.029  0.000  0.000  0.000  0.000  0.000  0.000  0.030
    3  0.001  0.001  0.012  0.000  0.000  0.000  0.000  0.000  0.000  0.013
    4  0.001  0.001  0.012  0.000  0.000  0.000  0.000  0.000  0.000  0.013
    5  0.000  0.003  0.055  0.000  0.000  0.000  0.000  0.000  0.000  0.059
    6  0.000  0.003  0.055  0.000  0.000  0.000  0.000  0.000  0.000  0.059
    7  0.000  0.003  0.055  0.000  0.000  0.000  0.000  0.000  0.000  0.059
    8  0.000  0.003  0.055  0.000  0.000  0.000  0.000  0.000  0.000  0.059
    9  0.001  0.001  0.012  0.000  0.000  0.000  0.000  0.000  0.000  0.013
   10  0.001  0.001  0.012  0.000  0.000  0.000  0.000  0.000  0.000  0.013
   11  0.001  0.000  0.029  0.000  0.000  0.000  0.000  0.000  0.000  0.030
   12  0.001  0.000  0.029  0.000  0.000  0.000  0.000  0.000  0.000  0.030
tot    0.005  0.018  0.384  0.000  0.000  0.000  0.000  0.000  0.000  0.407
 
band    23 # energy   -1.82715822 # occ.  2.00000000
 
ion      s     py     pz     px    dxy    dyz    dz2    dxz  x2-y2    tot
    1  0.000  0.000  0.000  0.020  0.000  0.000  0.000  0.000  0.000  0.020
    2  0.000  0.000  0.000  0.020  0.000  0.000  0.000  0.000  0.000  0.020
    3  0.000  0.000  0.000  0.011  0.000  0.000  0.000  0.000  0.000  0.011
    4  0.000  0.000  0.000  0.011  0.000  0.000  0.000  0.000  0.000  0.011
    5  0.000  0.000  0.000  0.101  0.000  0.000  0.000  0.000  0.000  0.101
    6  0.000  0.000  0.000  0.101  0.000  0.000  0.000  0.000  0.000  0.101
    7  0.000  0.000  0.000  0.101  0.000  0.000  0.000  0.000  0.000  0.101
    8  0.000  0.000  0.000  0.101  0.000  0.000  0.000  0.000  0.000  0.101
    9  0.000  0.000  0.000  0.011  0.000  0.000  0.000  0.000  0.000  0.011
   10  0.000  0.000  0.000  0.011  0.000  0.000  0.000  0.000  0.000  0.011
   11  0.000  0.000  0.000  0.020  0.000  0.000  0.000  0.000  0.000  0.020
   12  0.000  0.000  0.000  0.020  0.000  0.000  0.000  0.000  0.000  0.020
tot    0.000  0.000  0.000  0.527  0.000  0.000  0.000  0.000  0.000  0.527
 
band    24 # energy   -1.67956781 # occ.  2.00000000
 
ion      s     py     pz     px    dxy    dyz    dz2    dxz  x2-y2    tot
    1  0.000  0.007  0.043  0.000  0.000  0.000  0.000  0.000  0.000  0.050
    2  0.000  0.007  0.043  0.000  0.000  0.000  0.000  0.000  0.000  0.050
    3  0.000  0.005  0.036  0.000  0.000  0.000  0.000  0.000  0.000  0.040
    4  0.000  0.005  0.036  0.000  0.000  0.000  0.000  0.000  0.000  0.040
    5  0.002  0.002  0.003  0.000  0.000  0.000  0.000  0.000  0.000  0.007
    6  0.002  0.002  0.003  0.000  0.000  0.000  0.000  0.000  0.000  0.007
    7  0.002  0.002  0.003  0.000  0.000  0.000  0.000  0.000  0.000  0.007
    8  0.002  0.002  0.003  0.000  0.000  0.000  0.000  0.000  0.000  0.007
    9  0.000  0.005  0.036  0.000  0.000  0.000  0.000  0.000  0.000  0.040
   10  0.000  0.005  0.036  0.000  0.000  0.000  0.000  0.000  0.000  0.040
   11  0.000  0.007  0.043  0.000  0.000  0.000  0.000  0.000  0.000  0.050
   12  0.000  0.007  0.043  0.000  0.000  0.000  0.000  0.000  0.000  0.050
tot    0.012  0.052  0.324  0.000  0.000  0.000  0.000  0.000  0.000  0.387
 
band    25 # energy   -1.62206235 # occ.  2.00000000
 
ion      s     py     pz     px    dxy    dyz    dz2    dxz  x2-y2    tot
    1  0.000  0.000  0.000  0.072  0.000  0.000  0.000  0.000  0.000  0.072
    2  0.000  0.000  0.000  0.072  0.000  0.000  0.000  0.000  0.000  0.072
    3  0.000  0.000  0.000  0.061  0.000  0.000  0.000  0.000  0.000  0.061
    4  0.000  0.000  0.000  0.061  0.000  0.000  0.000  0.000  0.000  0.061
    5  0.000  0.000  0.000  0.000  0.000  0.000  0.000  0.000  0.000  0.000
    6  0.000  0.000  0.000  0.000  0.000  0.000  0.000  0.000  0.000  0.000
    7  0.000  0.000  0.000  0.000  0.000  0.000  0.000  0.000  0.000  0.000
    8  0.000  0.000  0.000  0.000  0.000  0.000  0.000  0.000  0.000  0.000
    9  0.000  0.000  0.000  0.061  0.000  0.000  0.000  0.000  0.000  0.061
   10  0.000  0.000  0.000  0.061  0.000  0.000  0.000  0.000  0.000  0.061
   11  0.000  0.000  0.000  0.072  0.000  0.000  0.000  0.000  0.000  0.072
   12  0.000  0.000  0.000  0.072  0.000  0.000  0.000  0.000  0.000  0.072
tot    0.000  0.000  0.000  0.534  0.000  0.000  0.000  0.000  0.000  0.534
 
band    26 # energy   -1.56295200 # occ.  2.00000000
 
ion      s     py     pz     px    dxy    dyz    dz2    dxz  x2-y2    tot
    1  0.000  0.000  0.000  0.052  0.000  0.000  0.000  0.000  0.000  0.052
    2  0.000  0.000  0.000  0.052  0.000  0.000  0.000  0.000  0.000  0.052
    3  0.000  0.000  0.000  0.050  0.000  0.000  0.000  0.000  0.000  0.050
    4  0.000  0.000  0.000  0.050  0.000  0.000  0.000  0.000  0.000  0.050
    5  0.000  0.000  0.000  0.032  0.000  0.000  0.000  0.000  0.000  0.032
    6  0.000  0.000  0.000  0.032  0.000  0.000  0.000  0.000  0.000  0.032
    7  0.000  0.000  0.000  0.032  0.000  0.000  0.000  0.000  0.000  0.032
    8  0.000  0.000  0.000  0.032  0.000  0.000  0.000  0.000  0.000  0.032
    9  0.000  0.000  0.000  0.050  0.000  0.000  0.000  0.000  0.000  0.050
   10  0.000  0.000  0.000  0.050  0.000  0.000  0.000  0.000  0.000  0.050
   11  0.000  0.000  0.000  0.052  0.000  0.000  0.000  0.000  0.000  0.052
   12  0.000  0.000  0.000  0.052  0.000  0.000  0.000  0.000  0.000  0.052
tot    0.000  0.000  0.000  0.539  0.000  0.000  0.000  0.000  0.000  0.539
 
band    27 # energy   -1.12069494 # occ.  2.00000000
 
ion      s     py     pz     px    dxy    dyz    dz2    dxz  x2-y2    tot
    1  0.000  0.014  0.015  0.000  0.000  0.000  0.000  0.000  0.000  0.029
    2  0.000  0.014  0.015  0.000  0.000  0.000  0.000  0.000  0.000  0.029
    3  0.003  0.003  0.033  0.000  0.000  0.000  0.000  0.000  0.000  0.039
    4  0.003  0.003  0.033  0.000  0.000  0.000  0.000  0.000  0.000  0.039
    5  0.001  0.011  0.020  0.000  0.000  0.000  0.000  0.000  0.000  0.032
    6  0.001  0.011  0.020  0.000  0.000  0.000  0.000  0.000  0.000  0.032
    7  0.001  0.011  0.020  0.000  0.000  0.000  0.000  0.000  0.000  0.032
    8  0.001  0.011  0.020  0.000  0.000  0.000  0.000  0.000  0.000  0.032