   20   20    1    1
  0.1415439E+03  0.3342886E-09  0.2737286E-08  0.3093708E-08  0.5000000E-15
  1.000000000000000E-004
  CAR 
 Generic Input                           
    100      5     64
 
  0.0000000E+00  0.0000000E+00  0.0000000E+00  0.1250000E+00
    1      -18.718732   1.000000
    2      -18.594013   1.000000
    3      -17.982749   1.000000
    4      -17.880105   1.000000
    5      -17.167903   1.000000
    6      -17.130009   1.000000
    7      -16.371281   1.000000
    8      -16.294793   1.000000
    9      -16.269884   1.000000
   10      -16.045520   1.000000
   11      -12.815869   1.000000
   12      -12.678145   1.000000
   13      -12.534501   1.000000
   14      -12.284701   1.000000
   15      -11.748061   1.000000
   16      -11.536012   1.000000
   17      -10.810545   1.000000
   18      -10.595067   1.000000
   19       -9.295176   1.000000
   20       -9.079103   1.000000
   21       -8.980467   1.000000
   22       -8.517743   1.000000
   23       -8.035864   1.000000
   24       -7.706710   1.000000
   25       -7.484172   1.000000
   26       -7.311077   1.000000
   27       -7.233576   1.000000
   28       -7.216440   1.000000
   29       -6.885423   1.000000
   30       -6.706927   1.000000
   31       -6.637715   1.000000
   32       -6.191360   1.000000
   33       -6.179027   1.000000
   34       -6.156418   1.000000
   35       -6.042787   1.000000
   36       -5.922425   1.000000
   37       -5.612626   1.000000
   38       -5.602685   1.000000
   39       -5.596348   1.000000
   40       -5.560381   1.000000
   41       -5.494803   1.000000
   42       -5.343925   1.000000
   43       -5.023839   1.000000
   44       -4.915991   1.000000
   45       -4.868079   1.000000
   46       -4.639327   1.000000
   47       -4.240280   1.000000
   48       -4.091536   1.000000
   49       -3.638911   0.000000
   50       -3.546311   0.000000
   51       -3.284654   0.000000
   52       -3.087674   0.000000
   53       -2.309009   0.000000
   54       -2.226811   0.000000
   55       -2.135281   0.000000
   56       -1.921206   0.000000
   57       -1.840992   0.000000
   58       -1.797862   0.000000
   59       -1.771037   0.000000
   60       -1.415084   0.000000
   61       -1.327198   0.000000
   62       -1.302497   0.000000
   63       -1.296051   0.000000
   64       -1.170749   0.000000
 
  0.1250000E+00  0.0000000E+00  0.0000000E+00  0.2500000E+00
    1      -18.538323   1.000000
    2      -18.414623   1.000000
    3      -17.806732   1.000000
    4      -17.705050   1.000000
    5      -16.995014   1.000000
    6      -16.956895   1.000000
    7      -16.192718   1.000000
    8      -16.118335   1.000000
    9      -16.082094   1.000000
   10      -15.858073   1.000000
   11      -12.865698   1.000000
   12      -12.744300   1.000000
   13      -12.502716   1.000000
   14      -12.269813   1.000000
   15      -11.732633   1.000000
   16      -11.512410   1.000000
   17      -10.747217   1.000000
   18      -10.541461   1.000000
   19       -9.363137   1.000000
   20       -9.119538   1.000000
   21       -8.996625   1.000000
   22       -8.426428   1.000000
   23       -8.297031   1.000000
   24       -8.180838   1.000000
   25       -8.135171   1.000000
   26       -7.999316   1.000000
   27       -7.938265   1.000000
   28       -7.434714   1.000000
   29       -7.393067   1.000000
   30       -7.265604   1.000000
   31       -7.245876   1.000000
   32       -7.121183   1.000000
   33       -6.789478   1.000000
   34       -6.562309   1.000000
   35       -6.529582   1.000000
   36       -6.473352   1.000000
   37       -6.457746   1.000000
   38       -5.898793   1.000000
   39       -5.755522   1.000000
   40       -5.610701   1.000000
   41       -5.469320   1.000000
   42       -5.318202   1.000000
   43       -4.980620   1.000000
   44       -4.811838   1.000000
   45       -4.726332   1.000000
   46       -4.614649   1.000000
   47       -4.455311   1.000000
   48       -4.226094   1.000000
   49       -3.688087   0.285359
   50       -3.587360   0.000000
   51       -3.245151   0.000000
   52       -3.136565   0.000000
   53       -2.181319   0.000000
   54       -1.521346   0.000000
   55       -1.274927   0.000000
   56       -1.151880   0.000000
   57       -1.124708   0.000000
   58       -1.021873   0.000000
   59       -0.947461   0.000000
   60       -0.850817   0.000000
   61       -0.841158   0.000000
   62       -0.770545   0.000000
   63       -0.712129   0.000000
   64       -0.557080   0.000000
 
  0.2500000E+00  0.0000000E+00  0.0000000E+00  0.2500000E+00
    1      -18.003491   1.000000
    2      -17.883243   1.000000
    3      -17.289466   1.000000
    4      -17.191358   1.000000
    5      -16.494470   1.000000
    6      -16.455988   1.000000
    7      -15.677748   1.000000
    8      -15.612710   1.000000
    9      -15.522126   1.000000
   10      -15.299074   1.000000
   11      -13.304016   1.000000
   12      -13.193509   1.000000
   13      -12.650527   1.000000
   14      -12.477705   1.000000
   15      -11.844796   1.000000
   16      -11.668444   1.000000
   17      -10.842788   1.000000
   18      -10.732928   1.000000
   19      -10.150986   1.000000
   20      -10.080146   1.000000
   21       -9.419602   1.000000
   22       -9.371350   1.000000
   23       -9.261676   1.000000
   24       -9.157911   1.000000
   25       -8.885368   1.000000
   26       -8.677514   1.000000
   27       -8.581177   1.000000
   28       -8.536456   1.000000
   29       -7.844778   1.000000
   30       -7.815080   1.000000
   31       -7.741191   1.000000
   32       -7.478678   1.000000
   33       -6.949693   1.000000
   34       -6.869473   1.000000
   35       -6.813455   1.000000
   36       -6.754490   1.000000
   37       -6.334142   1.000000
   38       -5.867253   1.000000
   39       -5.717087   1.000000
   40       -5.670320   1.000000
   41       -5.612081   1.000000
   42       -5.338742   1.000000
   43       -5.235676   1.000000
   44       -5.223830   1.000000
   45       -5.112524   1.000000
   46       -4.856010   1.000000
   47       -4.803762   1.000000
   48       -4.766608   1.000000
   49       -3.793980   1.000000
   50       -3.696105   0.714641
   51       -3.542506   0.000000
   52       -3.392737   0.000000
   53       -2.118069   0.000000
   54       -1.999193   0.000000
   55       -1.701353   0.000000
   56       -1.333855   0.000000
   57       -1.213338   0.000000
   58       -1.163732   0.000000
   59       -1.002150   0.000000
   60       -0.927039   0.000000
   61       -0.907809   0.000000
   62       -0.813584   0.000000
   63       -0.791332   0.000000
   64       -0.298642   0.000000
 
  0.3750000E+00  0.0000000E+00  0.0000000E+00  0.2500000E+00
    1      -17.138831   1.000000
    2      -17.026161   1.000000
    3      -16.481157   1.000000
    4      -16.393589   1.000000
    5      -15.778212   1.000000
    6      -15.745789   1.000000
    7      -15.124093   1.000000
    8      -15.083513   1.000000
    9      -14.603417   1.000000
   10      -14.380796   1.000000
   11      -14.097786   1.000000
   12      -13.953523   1.000000
   13      -13.398959   1.000000
   14      -13.285855   1.000000
   15      -12.630125   1.000000
   16      -12.577686   1.000000
   17      -11.902144   1.000000
   18      -11.850528   1.000000
   19      -11.777981   1.000000
   20      -11.593169   1.000000
   21       -9.604662   1.000000
   22       -9.513464   1.000000
   23       -9.345615   1.000000
   24       -9.226224   1.000000
   25       -8.718172   1.000000
   26       -8.682537   1.000000
   27       -8.600619   1.000000
   28       -8.528574   1.000000
   29       -7.756540   1.000000
   30       -7.649221   1.000000
   31       -7.595945   1.000000
   32       -7.451370   1.000000
   33       -7.292873   1.000000
   34       -7.057160   1.000000
   35       -7.033340   1.000000
   36       -6.764033   1.000000
   37       -6.310888   1.000000
   38       -6.246314   1.000000
   39       -6.136277   1.000000
   40       -6.125243   1.000000
   41       -5.940619   1.000000
   42       -5.859294   1.000000
   43       -5.541584   1.000000
   44       -5.319521   1.000000
   45       -5.260660   1.000000
   46       -4.952631   1.000000
   47       -4.903570   1.000000
   48       -4.863440   1.000000
   49       -3.982212   1.000000
   50       -3.939761   1.000000
   51       -3.786714   1.000000
   52       -3.743704   1.000000
   53       -2.106458   0.000000
   54       -1.973400   0.000000
   55       -1.868209   0.000000
   56       -1.681837   0.000000
   57       -1.670084   0.000000
   58       -1.442200   0.000000
   59       -1.371483   0.000000
   60       -1.074945   0.000000
   61       -1.073826   0.000000
   62       -0.958653   0.000000
   63       -0.835782   0.000000
   64       -0.702570   0.000000
 
  0.5000000E+00  0.0000000E+00  0.0000000E+00  0.1250000E+00
    1      -16.025776   1.000000
    2      -16.025776   1.000000
    3      -15.935848   1.000000
    4      -15.935848   1.000000
    5      -15.602148   1.000000
    6      -15.602148   1.000000
    7      -15.563503   1.000000
    8      -15.563503   1.000000
    9      -13.653376   1.000000
   10      -13.653376   1.000000
   11      -13.612496   1.000000
   12      -13.612496   1.000000
   13      -13.396593   1.000000
   14      -13.396593   1.000000
   15      -13.347292   1.000000
   16      -13.347292   1.000000
   17      -13.128714   1.000000
   18      -13.128714   1.000000
   19      -13.068275   1.000000
   20      -13.068275   1.000000
   21       -8.894188   1.000000
   22       -8.894188   1.000000
   23       -8.765266   1.000000
   24       -8.765266   1.000000
   25       -8.626733   1.000000
   26       -8.626733   1.000000
   27       -8.457821   1.000000
   28       -8.457821   1.000000
   29       -8.111044   1.000000
   30       -8.111044   1.000000
   31       -7.945429   1.000000
   32       -7.945429   1.000000
   33       -7.283478   1.000000
   34       -7.283478   1.000000
   35       -7.141785   1.000000
   36       -7.141785   1.000000
   37       -6.303010   1.000000
   38       -6.303010   1.000000
   39       -6.212126   1.000000
   40       -6.212126   1.000000
   41       -5.783586   1.000000
   42       -5.783586   1.000000
   43       -5.437793   1.000000
   44       -5.437793   1.000000
   45       -5.231631   1.000000
   46       -5.231631   1.000000
   47       -5.073990   1.000000
   48       -5.073990   1.000000
   49       -3.946686   1.000000
   50       -3.946686   1.000000
   51       -3.849436   1.000000
   52       -3.849436   1.000000
   53       -2.138232   0.000000
   54       -2.138232   0.000000
   55       -1.907678   0.000000
   56       -1.907678   0.000000
   57       -1.589810   0.000000
   58       -1.589810   0.000000
   59       -1.405145   0.000000
   60       -1.405145   0.000000
   61       -1.102940   0.000000
   62       -1.102940   0.000000
   63       -1.061091   0.000000
   64       -1.061091   0.000000
