 vasp.5.4.4.18Apr17-6-g9f103f2a35 (build Jun 20 2017 18:00:50) complex          
  
 executed on             LinuxIFC date 2018.06.06  18:31:44
 running on   32 total cores
 distrk:  each k-point on   32 cores,    1 groups
 distr:  one band on NCORES_PER_BAND=   8 cores,    4 groups


--------------------------------------------------------------------------------------------------------


 INCAR:
 POTCAR:    PAW_PBE P 06Sep2000                   
 POTCAR:    PAW_PBE P 06Sep2000                   
   VRHFIN =P : s2p3                                                             
   LEXCH  = PE                                                                  
   EATOM  =   176.0430 eV,   12.9388 Ry                                         
                                                                                
   TITEL  = PAW_PBE P 06Sep2000                                                 
   LULTRA =        F    use ultrasoft PP ?                                      
   IUNSCR =        1    unscreen: 0-lin 1-nonlin 2-no                           
   RPACOR =    1.500    partial core radius                                     
   POMASS =   30.974; ZVAL   =    5.000    mass and valenz                      
   RCORE  =    1.900    outmost cutoff radius                                   
   RWIGS  =    2.330; RWIGS  =    1.233    wigner-seitz radius (au A)           
   ENMAX  =  255.040; ENMIN  =  191.280 eV                                      
   ICORE  =        2    local potential                                         
   LCOR   =        T    correct aug charges                                     
   LPAW   =        T    paw PP                                                  
   EAUG   =  342.924                                                            
   DEXC   =    0.000                                                            
   RMAX   =    1.935    core radius for proj-oper                               
   RAUG   =    1.300    factor for augmentation sphere                          
   RDEP   =    1.931    radius for radial grids                                 
   RDEPT  =    1.794    core radius for aug-charge                              
                                                                                
   Atomic configuration                                                         
    6 entries                                                                   
     n  l   j            E        occ.                                          
     1  0  0.50     -2084.0982   2.0000                                         
     2  0  0.50      -173.9859   2.0000                                         
     2  1  1.50      -124.4865   6.0000                                         
     3  0  0.50       -13.9692   2.0000                                         
     3  1  0.50        -5.5067   3.0000                                         
     3  2  1.50        -5.4423   0.0000                                         
   Description                                                                  
     l       E           TYP  RCUT    TYP  RCUT                                 
     0    -13.9691527     23  1.900                                             
     0    -11.7794650     23  1.900                                             
     1     -5.5066937     23  1.900                                             
     1     -0.2556953     23  1.900                                             
     2     -5.4423304     23  1.900                                             
  local pseudopotential read in
  partial core-charges read in
  partial kinetic energy density read in
  atomic valenz-charges read in
  non local Contribution for L=           0  read in
    real space projection operators read in
  non local Contribution for L=           0  read in
    real space projection operators read in
  non local Contribution for L=           1  read in
    real space projection operators read in
  non local Contribution for L=           1  read in
    real space projection operators read in
    PAW grid and wavefunctions read in
 
   number of l-projection  operators is LMAX  =           4
   number of lm-projection operators is LMMAX =           8
 

 ----------------------------------------------------------------------------- 
|                                                                             |
|  ADVICE TO THIS USER RUNNING 'VASP/VAMP'   (HEAR YOUR MASTER'S VOICE ...):  |
|                                                                             |
|      You have a (more or less) 'large supercell' and for larger cells       |
|      it might be more efficient to use real space projection opertators     |
|      So try LREAL= Auto  in the INCAR   file.                               |
|      Mind:          For very  accurate calculation you might also keep the  |
|      reciprocal projection scheme          (i.e. LREAL=.FALSE.)             |
|                                                                             |
 ----------------------------------------------------------------------------- 

  PAW_PBE P 06Sep2000                   :
 energy of atom  1       EATOM= -176.0430
 kinetic energy error for atom=    0.0040 (will be added to EATOM!!)
 
 
 POSCAR: P                                       
  positions in cartesian coordinates
  No initial velocities read in
 exchange correlation table for  LEXCH =        8
   RHO(1)=    0.500       N(1)  =     2000
   RHO(2)=  100.500       N(2)  =     4000
 


--------------------------------------------------------------------------------------------------------


 ion  position               nearest neighbor table
   1  0.000  0.365  0.453-   2 2.23   2 2.23  11 2.26
   2  0.500  0.365  0.405-   1 2.23   1 2.23   4 2.26
   3  0.000  0.444  0.335-   4 2.23   4 2.23
   4  0.500  0.444  0.382-   3 2.23   3 2.23   2 2.26
   5  0.500  0.556  0.453-   6 2.23   6 2.23  15 2.26
   6  0.000  0.556  0.405-   5 2.23   5 2.23   8 2.26
   7  0.500  0.635  0.335-   8 2.23   8 2.23
   8  0.000  0.635  0.382-   7 2.23   7 2.23   6 2.26
   9  0.000  0.365  0.595-  10 2.23  10 2.23  17 2.26
  10  0.500  0.365  0.547-   9 2.23   9 2.23  12 2.26
  11  0.000  0.444  0.476-  12 2.23  12 2.23   1 2.26
  12  0.500  0.444  0.524-  11 2.23  11 2.23  10 2.26
  13  0.500  0.556  0.595-  14 2.23  14 2.23  19 2.26
  14  0.000  0.556  0.547-  13 2.23  13 2.23  16 2.26
  15  0.500  0.635  0.476-  16 2.23  16 2.23   5 2.26
  16  0.000  0.635  0.524-  15 2.23  15 2.23  14 2.26
  17  0.000  0.444  0.618-  18 2.23  18 2.23   9 2.26
  18  0.500  0.444  0.665-  17 2.23  17 2.23
  19  0.500  0.635  0.618-  20 2.23  20 2.23  13 2.26
  20  0.000  0.635  0.665-  19 2.23  19 2.23
 
  LATTYP: Found a simple orthorhombic cell.
 ALAT       =     3.3428860000
 B/A-ratio  =     8.1883927718
 C/A-ratio  =     9.2546014133
  
  Lattice vectors:
  
 A1 = (   3.3428860000,   0.0000000000,   0.0000000000)
 A2 = (   0.0000000000,  27.3728635592,   0.0000000000)
 A3 = (   0.0000000000,   0.0000000000,  30.9370775000)


Analysis of symmetry for initial positions (statically):
=====================================================================
 Subroutine PRICEL returns:
 Original cell was already a primitive cell.
 

 Routine SETGRP: Setting up the symmetry group for a 
 simple orthorhombic supercell.


 Subroutine GETGRP returns: Found  4 space group operations
 (whereof  2 operations were pure point group operations)
 out of a pool of  8 trial point group operations.


The static configuration has the point symmetry C_1h.
 The point group associated with its full space group is C_2v.


Analysis of symmetry for dynamics (positions and initial velocities):
=====================================================================
 Subroutine PRICEL returns:
 Original cell was already a primitive cell.
 

 Routine SETGRP: Setting up the symmetry group for a 
 simple orthorhombic supercell.


 Subroutine GETGRP returns: Found  4 space group operations
 (whereof  2 operations were pure point group operations)
 out of a pool of  8 trial point group operations.


The dynamic configuration has the point symmetry C_1h.
 The point group associated with its full space group is C_2v.


 Subroutine INISYM returns: Found  4 space group operations
 (whereof  2 operations are pure point group operations),
 and found     1 'primitive' translations

 
 
 KPOINTS: Automatic mesh                          

Automatic generation of k-mesh.
Space group operators:
 irot       det(A)        alpha          n_x          n_y          n_z        tau_x        tau_y        tau_z
    1     1.000000     0.000001     1.000000     0.000000     0.000000     0.000000     0.000000     0.000000
    2    -1.000000   180.000000     1.000000     0.000000     0.000000     0.000000     0.000000     0.000000
    3    -1.000000   180.000000     0.000000     0.000000     1.000000     0.500000     0.000000     0.000000
    4     1.000000   180.000000     0.000000     1.000000     0.000000     0.500000     0.000000     0.000000
 
 Subroutine IBZKPT returns following result:
 ===========================================
 
 Found      5 irreducible k-points:
 
 Following reciprocal coordinates:
            Coordinates               Weight
  0.000000  0.000000  0.000000      1.000000
  0.125000  0.000000  0.000000      2.000000
  0.250000  0.000000  0.000000      2.000000
  0.375000  0.000000  0.000000      2.000000
  0.500000  0.000000  0.000000      1.000000
 
 Following cartesian coordinates:
            Coordinates               Weight
  0.000000  0.000000  0.000000      1.000000
  0.037393  0.000000  0.000000      2.000000
  0.074786  0.000000  0.000000      2.000000
  0.112179  0.000000  0.000000      2.000000
  0.149571  0.000000  0.000000      1.000000
 


--------------------------------------------------------------------------------------------------------




 Dimension of arrays:
   k-points           NKPTS =      5   k-points in BZ     NKDIM =      5   number of bands    NBANDS=     64
   number of dos      NEDOS =   2000   number of ions     NIONS =     20
   non local maximal  LDIM  =      4   non local SUM 2l+1 LMDIM =      8
   total plane-waves  NPLWV = 235200
   max r-space proj   IRMAX =      1   max aug-charges    IRDMAX=   2728
   dimension x,y,z NGX =    14 NGY =  120 NGZ =  140
   dimension x,y,z NGXF=    28 NGYF=  240 NGZF=  280
   support grid    NGXF=    28 NGYF=  240 NGZF=  280
   ions per type =              20
   NGX,Y,Z   is equivalent  to a cutoff of   6.96,  7.29,  7.52 a.u.
   NGXF,Y,Z  is equivalent  to a cutoff of  13.92, 14.58, 15.05 a.u.

 SYSTEM =  Generic Input                           
 POSCAR =  P                                       

 Startparameter for this run:
   NWRITE =      2    write-flag & timer
   PREC   = normal    normal or accurate (medium, high low for compatibility)
   ISTART =      0    job   : 0-new  1-cont  2-samecut
   ICHARG =      2    charge: 1-file 2-atom 10-const
   ISPIN  =      1    spin polarized calculation?
   LNONCOLLINEAR =      F non collinear calculations
   LSORBIT =      F    spin-orbit coupling
   INIWAV =      1    electr: 0-lowe 1-rand  2-diag
   LASPH  =      T    aspherical Exc in radial PAW
   METAGGA=      F    non-selfconsistent MetaGGA calc.

 Electronic Relaxation 1
   ENCUT  =  300.0 eV  22.05 Ry    4.70 a.u.   4.72 38.66 43.69*2*pi/ulx,y,z
   ENINI  =  300.0     initial cutoff
   ENAUG  =  342.9 eV  augmentation charge cutoff
   NELM   =    200;   NELMIN=  2; NELMDL=  0     # of ELM steps 
   EDIFF  = 0.1E-04   stopping-criterion for ELM
   LREAL  =      F    real-space projection
   NLSPLINE    = F    spline interpolate recip. space projectors
   LCOMPAT=      F    compatible to vasp.4.4
   GGA_COMPAT  = T    GGA compatible to vasp.4.4-vasp.4.6
   LMAXPAW     = -100 max onsite density
   LMAXMIX     =    2 max onsite mixed and CHGCAR
   VOSKOWN=      0    Vosko Wilk Nusair interpolation
   ROPT   =    0.00000
 Ionic relaxation
   EDIFFG = -.2E-01   stopping-criterion for IOM
   NSW    =      0    number of steps for IOM
   NBLOCK =      1;   KBLOCK =      1    inner block; outer block 
   IBRION =     -1    ionic relax: 0-MD 1-quasi-New 2-CG
   NFREE  =      1    steps in history (QN), initial steepest desc. (CG)
   ISIF   =      3    stress and relaxation
   IWAVPR =     11    prediction:  0-non 1-charg 2-wave 3-comb
   ISYM   =      2    0-nonsym 1-usesym 2-fastsym
   LCORR  =      T    Harris-Foulkes like correction to forces

   POTIM  = 0.5000    time-step for ionic-motion
   TEIN   =    0.0    initial temperature
   TEBEG  =    0.0;   TEEND  =   0.0 temperature during run
   SMASS  =  -3.00    Nose mass-parameter (am)
   estimated Nose-frequenzy (Omega)   =  0.10E-29 period in steps =****** mass=  -0.255E-27a.u.
   SCALEE = 1.0000    scale energy and forces
   NPACO  =    256;   APACO  = 16.0  distance and # of slots for P.C.
   PSTRESS=    0.0 pullay stress

  Mass of Ions in am
   POMASS =  30.97
  Ionic Valenz
   ZVAL   =   5.00
  Atomic Wigner-Seitz radii
   RWIGS  =  -1.00
  virtual crystal weights 
   VCA    =   1.00
   NELECT =     100.0000    total number of electrons
   NUPDOWN=      -1.0000    fix difference up-down

 DOS related values:
   EMIN   =  10.00;   EMAX   =-10.00  energy-range for DOS
   EFERMI =   0.00
   ISMEAR =     0;   SIGMA  =   0.01  broadening in eV -4-tet -1-fermi 0-gaus

 Electronic relaxation 2 (details)
   IALGO  =     38    algorithm
   LDIAG  =      T    sub-space diagonalisation (order eigenvalues)
   LSUBROT=      F    optimize rotation matrix (better conditioning)
   TURBO    =      0    0=normal 1=particle mesh
   IRESTART =      0    0=no restart 2=restart with 2 vectors
   NREBOOT  =      0    no. of reboots
   NMIN     =      0    reboot dimension
   EREF     =   0.00    reference energy to select bands
   IMIX   =      4    mixing-type and parameters
     AMIX     =   0.40;   BMIX     =  1.00
     AMIX_MAG =   1.60;   BMIX_MAG =  1.00
     AMIN     =   0.10
     WC   =   100.;   INIMIX=   1;  MIXPRE=   1;  MAXMIX= -45

 Intra band minimization:
   WEIMIN = 0.0000     energy-eigenvalue tresh-hold
   EBREAK =  0.39E-07  absolut break condition
   DEPER  =   0.30     relativ break condition  

   TIME   =   0.40     timestep for ELM

  volume/ion in A,a.u.               =     141.54       955.19
  Fermi-wavevector in a.u.,A,eV,Ry     =   0.537157  1.015079  3.925791  0.288538
  Thomas-Fermi vector in A             =   1.562804
 
 Write flags
   LWAVE        =      F    write WAVECAR
   LDOWNSAMPLE  =      F    k-point downsampling of WAVECAR
   LCHARG       =      T    write CHGCAR
   LVTOT        =      F    write LOCPOT, total local potential
   LVHAR        =      T    write LOCPOT, Hartree potential only
   LELF         =      F    write electronic localiz. function (ELF)
   LORBIT       =     11    0 simple, 1 ext, 2 COOP (PROOUT), +10 PAW based schemes


 Dipole corrections
   LMONO  =      F    monopole corrections only (constant potential shift)
   LDIPOL =      F    correct potential (dipole corrections)
   IDIPOL =      0    1-x, 2-y, 3-z, 4-all directions 
   EPSILON=  1.0000000 bulk dielectric constant

 Core level calculations are selected ICORELEVEL =  1
 Exchange correlation treatment:
   GGA     =    PE    GGA type
   LEXCH   =     8    internal setting for exchange type
   VOSKOWN=      0    Vosko Wilk Nusair interpolation
   LHFCALC =     F    Hartree Fock is set to
   LHFONE  =     F    Hartree Fock one center treatment
   AEXX    =    0.0000 exact exchange contribution

 Linear response parameters
   LEPSILON=     F    determine dielectric tensor
   LRPA    =     F    only Hartree local field effects (RPA)
   LNABLA  =     F    use nabla operator in PAW spheres
   LVEL    =     F    velocity operator in full k-point grid
   LINTERFAST=   F  fast interpolation
   KINTER  =     0    interpolate to denser k-point grid
   CSHIFT  =0.1000    complex shift for real part using Kramers Kronig
   OMEGAMAX=  -1.0    maximum frequency
   DEG_THRESHOLD= 0.2000000E-02 threshold for treating states as degnerate
   RTIME   =   -0.100 relaxation time in fs
  (WPLASMAI=    0.000 imaginary part of plasma frequency in eV, 0.658/RTIME)
   DFIELD  = 0.0000000 0.0000000 0.0000000 field for delta impulse in time
 
 Orbital magnetization related:
   ORBITALMAG=     F  switch on orbital magnetization
   LCHIMAG   =     F  perturbation theory with respect to B field
   DQ        =  0.001000  dq finite difference perturbation B field
   LLRAUG    =     F  two centre corrections for induced B field



--------------------------------------------------------------------------------------------------------


 Static calculation
 charge density and potential will be updated during run
 non-spin polarized calculation
 Variant of blocked Davidson
 Davidson routine will perform the subspace rotation
 perform sub-space diagonalisation
    after iterative eigenvector-optimisation
 modified Broyden-mixing scheme, WC =      100.0
 initial mixing is a Kerker type mixing with AMIX =  0.4000 and BMIX =      1.0000
 Hartree-type preconditioning will be used
 using additional bands           14
 reciprocal scheme for non local part
 use partial core corrections
 calculate Harris-corrections to forces 
   (improved forces if not selfconsistent)
 use gradient corrections 
 use of overlap-Matrix (Vanderbilt PP)
 Gauss-broadening in eV      SIGMA  =   0.01


--------------------------------------------------------------------------------------------------------


  energy-cutoff  :      300.00
  volume of cell :     2830.88
      direct lattice vectors                 reciprocal lattice vectors
     3.342886000  0.000000000  0.000000000     0.299142717  0.000000000  0.000000000
     0.000000000 27.372863559  0.000000000     0.000000000  0.036532531  0.000000000
     0.000000000  0.000000000 30.937077500     0.000000000  0.000000000  0.032323674

  length of vectors
     3.342886000 27.372863559 30.937077500     0.299142717  0.036532531  0.032323674


 
 k-points in units of 2pi/SCALE and weight: Automatic mesh                          
   0.00000000  0.00000000  0.00000000       0.125
   0.03739284  0.00000000  0.00000000       0.250
   0.07478568  0.00000000  0.00000000       0.250
   0.11217852  0.00000000  0.00000000       0.250
   0.14957136  0.00000000  0.00000000       0.125
 
 k-points in reciprocal lattice and weights: Automatic mesh                          
   0.00000000  0.00000000  0.00000000       0.125
   0.12500000  0.00000000  0.00000000       0.250
   0.25000000  0.00000000  0.00000000       0.250
   0.37500000  0.00000000  0.00000000       0.250
   0.50000000  0.00000000  0.00000000       0.125
 
 position of ions in fractional coordinates (direct lattice) 
   0.00000000  0.36532531  0.45318234
   0.50000000  0.36532531  0.40540705
   0.00000000  0.44362617  0.33470174
   0.50000000  0.44362617  0.38247704
   0.50000000  0.55637383  0.45318234
   0.00000000  0.55637383  0.40540705
   0.50000000  0.63467469  0.33470174
   0.00000000  0.63467469  0.38247704
   0.00000000  0.36532531  0.59459295
   0.50000000  0.36532531  0.54681766
   0.00000000  0.44362617  0.47611235
   0.50000000  0.44362617  0.52388765
   0.50000000  0.55637383  0.59459295
   0.00000000  0.55637383  0.54681766
   0.50000000  0.63467469  0.47611235
   0.00000000  0.63467469  0.52388765
   0.00000000  0.44362617  0.61752296
   0.50000000  0.44362617  0.66529826
   0.50000000  0.63467469  0.61752296
   0.00000000  0.63467469  0.66529826
 
 position of ions in cartesian coordinates  (Angst):
   0.00000000 10.00000000 14.02013720
   1.67144300 10.00000000 12.54210930
   0.00000000 12.14331856 10.35469380
   1.67144300 12.14331856 11.83272170
   1.67144300 15.22954500 14.02013720
   0.00000000 15.22954500 12.54210930
   1.67144300 17.37286356 10.35469380
   0.00000000 17.37286356 11.83272170
   0.00000000 10.00000000 18.39496820
   1.67144300 10.00000000 16.91694030
   0.00000000 12.14331856 14.72952480
   1.67144300 12.14331856 16.20755270
   1.67144300 15.22954500 18.39496820
   0.00000000 15.22954500 16.91694030
   1.67144300 17.37286356 14.72952480
   0.00000000 17.37286356 16.20755270
   0.00000000 12.14331856 19.10435580
   1.67144300 12.14331856 20.58238370
   1.67144300 17.37286356 19.10435580
   0.00000000 17.37286356 20.58238370
 


--------------------------------------------------------------------------------------------------------


 k-point  1 :   0.0000 0.0000 0.0000  plane waves:   33419
 k-point  2 :   0.1250 0.0000 0.0000  plane waves:   33437
 k-point  3 :   0.2500 0.0000 0.0000  plane waves:   33381
 k-point  4 :   0.3750 0.0000 0.0000  plane waves:   33392
 k-point  5 :   0.5000 0.0000 0.0000  plane waves:   33438

 maximum and minimum number of plane-waves per node :      4207     4155

 maximum number of plane-waves:     33438
 maximum index in each direction: 
   IXMAX=    4   IYMAX=   38   IZMAX=   43
   IXMIN=   -5   IYMIN=  -38   IZMIN=  -43


 parallel 3D FFT for wavefunctions:
    minimum data exchange during FFTs selected (reduces bandwidth)
 parallel 3D FFT for charge:
    minimum data exchange during FFTs selected (reduces bandwidth)


 total amount of memory used by VASP MPI-rank0    45988. kBytes
=======================================================================

   base      :      30000. kBytes
   nonl-proj :       2693. kBytes
   fftplans  :       3282. kBytes
   grid      :       4588. kBytes
   one-center:          9. kBytes
   wavefun   :       5416. kBytes
 
     INWAV:  cpu time    0.0000: real time    0.0000
 Broyden mixing: mesh for mixing (old mesh)
   NGX =  9   NGY = 77   NGZ = 87
  (NGX  = 28   NGY  =240   NGZ  =280)
  gives a total of  60291 points

 initial charge density was supplied:
 charge density of overlapping atoms calculated
 number of electron     100.0000000 magnetization 
 keeping initial charge density in first step


--------------------------------------------------------------------------------------------------------


 Maximum index for augmentation-charges          230 (set IRDMAX)


--------------------------------------------------------------------------------------------------------


 First call to EWALD:  gamma=   0.125
 Maximum number of real-space cells10x 2x 2
 Maximum number of reciprocal cells 1x 5x 5

    FEWALD:  cpu time    0.0029: real time    0.0032


--------------------------------------- Iteration      1(   1)  ---------------------------------------


    POTLOK:  cpu time    0.0635: real time    0.0708
    SETDIJ:  cpu time    0.0685: real time    0.0700
     EDDAV:  cpu time    1.2166: real time    1.2523
       DOS:  cpu time    0.0008: real time    0.0017
    --------------------------------------------
      LOOP:  cpu time    1.3495: real time    1.3948

 eigenvalue-minimisations  :   776
 total energy-change (2. order) : 0.6053497E+03  (-0.2239318E+04)
 number of electron     100.0000000 magnetization 
 augmentation part      100.0000000 magnetization 

 Free energy of the ion-electron system (eV)
  ---------------------------------------------------
  alpha Z        PSCENC =        14.16664101
  Ewald energy   TEWEN  =     22150.99995031
  -Hartree energ DENC   =    -24985.08699422
  -exchange      EXHF   =         0.00000000
  -V(xc)+E(xc)   XCENC  =        63.56378768
  PAW double counting   =      2795.20059801    -2631.97160219
  entropy T*S    EENTRO =        -0.00207346
  eigenvalues    EBANDS =      -322.29970300
  atomic energy  EATOM  =      3520.77905318
  Solvation  Ediel_sol  =         0.00000000
  ---------------------------------------------------
  free energy    TOTEN  =       605.34965731 eV

  energy without entropy =      605.35173078  energy(sigma->0) =      605.35069404


--------------------------------------------------------------------------------------------------------




--------------------------------------- Iteration      1(   2)  ---------------------------------------


     EDDAV:  cpu time    1.3709: real time    1.3747
       DOS:  cpu time    0.0005: real time    0.0005
    --------------------------------------------
      LOOP:  cpu time    1.3714: real time    1.3752

 eigenvalue-minimisations  :   928
 total energy-change (2. order) :-0.5932125E+03  (-0.5505910E+03)
 number of electron     100.0000000 magnetization 
 augmentation part      100.0000000 magnetization 

 Free energy of the ion-electron system (eV)
  ---------------------------------------------------
  alpha Z        PSCENC =        14.16664101
  Ewald energy   TEWEN  =     22150.99995031
  -Hartree energ DENC   =    -24985.08699422
  -exchange      EXHF   =         0.00000000
  -V(xc)+E(xc)   XCENC  =        63.56378768
  PAW double counting   =      2795.20059801    -2631.97160219
  entropy T*S    EENTRO =        -0.00151858
  eigenvalues    EBANDS =      -915.51278369
  atomic energy  EATOM  =      3520.77905318
  Solvation  Ediel_sol  =         0.00000000
  ---------------------------------------------------
  free energy    TOTEN  =        12.13713150 eV

  energy without entropy =       12.13865008  energy(sigma->0) =       12.13789079


--------------------------------------------------------------------------------------------------------




--------------------------------------- Iteration      1(   3)  ---------------------------------------


     EDDAV:  cpu time    1.1640: real time    1.1647
       DOS:  cpu time    0.0003: real time    0.0003
    --------------------------------------------
      LOOP:  cpu time    1.1643: real time    1.1650

 eigenvalue-minimisations  :   752
 total energy-change (2. order) :-0.1121586E+03  (-0.1104523E+03)
 number of electron     100.0000000 magnetization 
 augmentation part      100.0000000 magnetization 

 Free energy of the ion-electron system (eV)
  ---------------------------------------------------
  alpha Z        PSCENC =        14.16664101
  Ewald energy   TEWEN  =     22150.99995031
  -Hartree energ DENC   =    -24985.08699422
  -exchange      EXHF   =         0.00000000
  -V(xc)+E(xc)   XCENC  =        63.56378768
  PAW double counting   =      2795.20059801    -2631.97160219
  entropy T*S    EENTRO =        -0.00000000
  eigenvalues    EBANDS =     -1027.67295056
  atomic energy  EATOM  =      3520.77905318
  Solvation  Ediel_sol  =         0.00000000
  ---------------------------------------------------
  free energy    TOTEN  =      -100.02151679 eV

  energy without entropy =     -100.02151679  energy(sigma->0) =     -100.02151679


--------------------------------------------------------------------------------------------------------




--------------------------------------- Iteration      1(   4)  ---------------------------------------


     EDDAV:  cpu time    1.1979: real time    1.2001
       DOS:  cpu time    0.0005: real time    0.0005
    --------------------------------------------
      LOOP:  cpu time    1.1983: real time    1.2006

 eigenvalue-minimisations  :   792
 total energy-change (2. order) :-0.4650887E+01  (-0.4549978E+01)
 number of electron     100.0000000 magnetization 
 augmentation part      100.0000000 magnetization 

 Free energy of the ion-electron system (eV)
  ---------------------------------------------------
  alpha Z        PSCENC =        14.16664101
  Ewald energy   TEWEN  =     22150.99995031
  -Hartree energ DENC   =    -24985.08699422
  -exchange      EXHF   =         0.00000000
  -V(xc)+E(xc)   XCENC  =        63.56378768
  PAW double counting   =      2795.20059801    -2631.97160219
  entropy T*S    EENTRO =        -0.00008540
  eigenvalues    EBANDS =     -1032.32375219
  atomic energy  EATOM  =      3520.77905318
  Solvation  Ediel_sol  =         0.00000000
  ---------------------------------------------------
  free energy    TOTEN  =      -104.67240381 eV

  energy without entropy =     -104.67231842  energy(sigma->0) =     -104.67236111


--------------------------------------------------------------------------------------------------------




--------------------------------------- Iteration      1(   5)  ---------------------------------------


     EDDAV:  cpu time    1.3870: real time    1.3893
       DOS:  cpu time    0.0005: real time    0.0005
    CHARGE:  cpu time    0.0722: real time    0.0751
    MIXING:  cpu time    0.0026: real time    0.0043
    --------------------------------------------
      LOOP:  cpu time    1.4622: real time    1.4692

 eigenvalue-minimisations  :   968
 total energy-change (2. order) :-0.2010223E+00  (-0.1998580E+00)
 number of electron     100.0000022 magnetization 
 augmentation part      -10.8703981 magnetization 

 Broyden mixing:
  rms(total) = 0.21775E+01    rms(broyden)= 0.21774E+01
  rms(prec ) = 0.21873E+01
  weight for this iteration     100.00

 Free energy of the ion-electron system (eV)
  ---------------------------------------------------
  alpha Z        PSCENC =        14.16664101
  Ewald energy   TEWEN  =     22150.99995031
  -Hartree energ DENC   =    -24985.08699422
  -exchange      EXHF   =         0.00000000
  -V(xc)+E(xc)   XCENC  =        63.56378768
  PAW double counting   =      2795.20059801    -2631.97160219
  entropy T*S    EENTRO =        -0.00007418
  eigenvalues    EBANDS =     -1032.52478568
  atomic energy  EATOM  =      3520.77905318
  Solvation  Ediel_sol  =         0.00000000
  ---------------------------------------------------
  free energy    TOTEN  =      -104.87342609 eV

  energy without entropy =     -104.87335190  energy(sigma->0) =     -104.87338900


--------------------------------------------------------------------------------------------------------




--------------------------------------- Iteration      1(   6)  ---------------------------------------


    POTLOK:  cpu time    0.0450: real time    0.0464
    SETDIJ:  cpu time    0.0663: real time    0.0663
     EDDAV:  cpu time    1.2603: real time    1.2607
       DOS:  cpu time    0.0005: real time    0.0005
    CHARGE:  cpu time    0.0988: real time    0.1131
    MIXING:  cpu time    0.0019: real time    0.0024
    --------------------------------------------
      LOOP:  cpu time    1.4727: real time    1.4893

 eigenvalue-minimisations  :   840
 total energy-change (2. order) : 0.7306959E+00  (-0.9092350E-01)
 number of electron     100.0000022 magnetization 
 augmentation part      -10.8261957 magnetization 

 Broyden mixing:
  rms(total) = 0.12882E+01    rms(broyden)= 0.12882E+01
  rms(prec ) = 0.12951E+01
  weight for this iteration     100.00

 eigenvalues of (default mixing * dielectric matrix)
  average eigenvalue GAMMA=   2.3803
  2.3803

 Free energy of the ion-electron system (eV)
  ---------------------------------------------------
  alpha Z        PSCENC =        14.16664101
  Ewald energy   TEWEN  =     22150.99995031
  -Hartree energ DENC   =    -25000.13926958
  -exchange      EXHF   =         0.00000000
  -V(xc)+E(xc)   XCENC  =        65.32646718
  PAW double counting   =      5113.92199550    -4951.39474757
  entropy T*S    EENTRO =        -0.00003982
  eigenvalues    EBANDS =     -1017.80278041
  atomic energy  EATOM  =      3520.77905318
  Solvation  Ediel_sol  =         0.00000000
  ---------------------------------------------------
  free energy    TOTEN  =      -104.14273018 eV

  energy without entropy =     -104.14269037  energy(sigma->0) =     -104.14271027


--------------------------------------------------------------------------------------------------------




--------------------------------------- Iteration      1(   7)  ---------------------------------------


    POTLOK:  cpu time    0.0548: real time    0.0585
    SETDIJ:  cpu time    0.0661: real time    0.0661
     EDDAV:  cpu time    1.2260: real time    1.2266
       DOS:  cpu time    0.0005: real time    0.0005
    CHARGE:  cpu time    0.0706: real time    0.0706
    MIXING:  cpu time    0.0016: real time    0.0016
    --------------------------------------------
      LOOP:  cpu time    1.4197: real time    1.4239

 eigenvalue-minimisations  :   816
 total energy-change (2. order) :-0.4879798E+00  (-0.7233409E+00)
 number of electron     100.0000020 magnetization 
 augmentation part      -10.7657652 magnetization 

 Broyden mixing:
  rms(total) = 0.38468E+00    rms(broyden)= 0.38462E+00
  rms(prec ) = 0.50143E+00
  weight for this iteration     100.00

 eigenvalues of (default mixing * dielectric matrix)
  average eigenvalue GAMMA=   1.4447
  2.4272  0.4622

 Free energy of the ion-electron system (eV)
  ---------------------------------------------------
  alpha Z        PSCENC =        14.16664101
  Ewald energy   TEWEN  =     22150.99995031
  -Hartree energ DENC   =    -25047.61646710
  -exchange      EXHF   =         0.00000000
  -V(xc)+E(xc)   XCENC  =        67.95150684
  PAW double counting   =      9736.62813425    -9574.92946268
  entropy T*S    EENTRO =        -0.00141391
  eigenvalues    EBANDS =      -972.60865191
  atomic energy  EATOM  =      3520.77905318
  Solvation  Ediel_sol  =         0.00000000
  ---------------------------------------------------
  free energy    TOTEN  =      -104.63070999 eV

  energy without entropy =     -104.62929609  energy(sigma->0) =     -104.63000304


--------------------------------------------------------------------------------------------------------




--------------------------------------- Iteration      1(   8)  ---------------------------------------


    POTLOK:  cpu time    0.0438: real time    0.0452
    SETDIJ:  cpu time    0.0661: real time    0.0661
     EDDAV:  cpu time    1.2185: real time    1.2194
       DOS:  cpu time    0.0005: real time    0.0005
    CHARGE:  cpu time    0.0696: real time    0.0696
    MIXING:  cpu time    0.0015: real time    0.0015
    --------------------------------------------
      LOOP:  cpu time    1.4000: real time    1.4023

 eigenvalue-minimisations  :   816
 total energy-change (2. order) : 0.7295282E+00  (-0.3041948E+00)
 number of electron     100.0000021 magnetization 
 augmentation part      -10.7340869 magnetization 

 Broyden mixing:
  rms(total) = 0.12005E+00    rms(broyden)= 0.11997E+00
  rms(prec ) = 0.12988E+00
  weight for this iteration     100.00

 eigenvalues of (default mixing * dielectric matrix)
  average eigenvalue GAMMA=   1.1902
  2.4725  0.5664  0.5316

 Free energy of the ion-electron system (eV)
  ---------------------------------------------------
  alpha Z        PSCENC =        14.16664101
  Ewald energy   TEWEN  =     22150.99995031
  -Hartree energ DENC   =    -25046.12267175
  -exchange      EXHF   =         0.00000000
  -V(xc)+E(xc)   XCENC  =        68.10272904
  PAW double counting   =      9949.97952689    -9788.28991196
  entropy T*S    EENTRO =        -0.00092236
  eigenvalues    EBANDS =      -973.51557618
  atomic energy  EATOM  =      3520.77905318
  Solvation  Ediel_sol  =         0.00000000
  ---------------------------------------------------
  free energy    TOTEN  =      -103.90118180 eV

  energy without entropy =     -103.90025945  energy(sigma->0) =     -103.90072063


--------------------------------------------------------------------------------------------------------




--------------------------------------- Iteration      1(   9)  ---------------------------------------


    POTLOK:  cpu time    0.0443: real time    0.0459
    SETDIJ:  cpu time    0.0662: real time    0.0662
     EDDAV:  cpu time    1.2656: real time    1.2664
       DOS:  cpu time    0.0005: real time    0.0005
    CHARGE:  cpu time    0.0956: real time    0.0956
    MIXING:  cpu time    0.0019: real time    0.0019
    --------------------------------------------
      LOOP:  cpu time    1.4741: real time    1.4765

 eigenvalue-minimisations  :   824
 total energy-change (2. order) : 0.1124264E-01  (-0.2093443E-01)
 number of electron     100.0000021 magnetization 
 augmentation part      -10.7390938 magnetization 

 Broyden mixing:
  rms(total) = 0.61705E-01    rms(broyden)= 0.61696E-01
  rms(prec ) = 0.64662E-01
  weight for this iteration     100.00

 eigenvalues of (default mixing * dielectric matrix)
  average eigenvalue GAMMA=   1.1119
  2.4560  0.7547  0.7547  0.4821

 Free energy of the ion-electron system (eV)
  ---------------------------------------------------
  alpha Z        PSCENC =        14.16664101
  Ewald energy   TEWEN  =     22150.99995031
  -Hartree energ DENC   =    -25043.73974768
  -exchange      EXHF   =         0.00000000
  -V(xc)+E(xc)   XCENC  =        68.19157832
  PAW double counting   =     10105.73190883    -9943.99956483
  entropy T*S    EENTRO =        -0.00184747
  eigenvalues    EBANDS =      -976.01791084
  atomic energy  EATOM  =      3520.77905318
  Solvation  Ediel_sol  =         0.00000000
  ---------------------------------------------------
  free energy    TOTEN  =      -103.88993917 eV

  energy without entropy =     -103.88809170  energy(sigma->0) =     -103.88901544


--------------------------------------------------------------------------------------------------------




--------------------------------------- Iteration      1(  10)  ---------------------------------------


    POTLOK:  cpu time    0.0555: real time    0.0573
    SETDIJ:  cpu time    0.0662: real time    0.0662
     EDDAV:  cpu time    1.4983: real time    1.4992
       DOS:  cpu time    0.0005: real time    0.0005
    CHARGE:  cpu time    0.0934: real time    0.0934
    MIXING:  cpu time    0.0017: real time    0.0017
    --------------------------------------------
      LOOP:  cpu time    1.7156: real time    1.7184

 eigenvalue-minimisations  :   832
 total energy-change (2. order) : 0.3540872E-02  (-0.3497194E-02)
 number of electron     100.0000021 magnetization 
 augmentation part      -10.7464325 magnetization 

 Broyden mixing:
  rms(total) = 0.49641E-01    rms(broyden)= 0.49640E-01
  rms(prec ) = 0.51035E-01
  weight for this iteration     100.00

 eigenvalues of (default mixing * dielectric matrix)
  average eigenvalue GAMMA=   1.1349
  2.4347  1.0721  1.0721  0.5478  0.5478

 Free energy of the ion-electron system (eV)
  ---------------------------------------------------
  alpha Z        PSCENC =        14.16664101
  Ewald energy   TEWEN  =     22150.99995031
  -Hartree energ DENC   =    -25043.72867269
  -exchange      EXHF   =         0.00000000
  -V(xc)+E(xc)   XCENC  =        68.18110477
  PAW double counting   =     10087.24214514    -9925.45139250
  entropy T*S    EENTRO =        -0.00207379
  eigenvalues    EBANDS =      -976.07315372
  atomic energy  EATOM  =      3520.77905318
  Solvation  Ediel_sol  =         0.00000000
  ---------------------------------------------------
  free energy    TOTEN  =      -103.88639830 eV

  energy without entropy =     -103.88432450  energy(sigma->0) =     -103.88536140


--------------------------------------------------------------------------------------------------------




--------------------------------------- Iteration      1(  11)  ---------------------------------------


    POTLOK:  cpu time    0.0516: real time    0.0533
    SETDIJ:  cpu time    0.0666: real time    0.0666
     EDDAV:  cpu time    1.3971: real time    1.3979
       DOS:  cpu time    0.0005: real time    0.0005
    CHARGE:  cpu time    0.0902: real time    0.0902
    MIXING:  cpu time    0.0019: real time    0.0019
    --------------------------------------------
      LOOP:  cpu time    1.6079: real time    1.6104

 eigenvalue-minimisations  :   808
 total energy-change (2. order) : 0.7410778E-03  (-0.4643343E-03)
 number of electron     100.0000021 magnetization 
 augmentation part      -10.7468193 magnetization 

 Broyden mixing:
  rms(total) = 0.34342E-01    rms(broyden)= 0.34342E-01
  rms(prec ) = 0.36350E-01
  weight for this iteration     100.00

 eigenvalues of (default mixing * dielectric matrix)
  average eigenvalue GAMMA=   1.2262
  1.9488  1.9488  1.3650  0.4900  0.8025  0.8025

 Free energy of the ion-electron system (eV)
  ---------------------------------------------------
  alpha Z        PSCENC =        14.16664101
  Ewald energy   TEWEN  =     22150.99995031
  -Hartree energ DENC   =    -25045.07393841
  -exchange      EXHF   =         0.00000000
  -V(xc)+E(xc)   XCENC  =        68.18685868
  PAW double counting   =     10059.93696696    -9898.11659726
  entropy T*S    EENTRO =        -0.00171281
  eigenvalues    EBANDS =      -974.76287889
  atomic energy  EATOM  =      3520.77905318
  Solvation  Ediel_sol  =         0.00000000
  ---------------------------------------------------
  free energy    TOTEN  =      -103.88565722 eV

  energy without entropy =     -103.88394441  energy(sigma->0) =     -103.88480082


--------------------------------------------------------------------------------------------------------




--------------------------------------- Iteration      1(  12)  ---------------------------------------


    POTLOK:  cpu time    0.0632: real time    0.0649
    SETDIJ:  cpu time    0.0661: real time    0.0661
     EDDAV:  cpu time    1.3664: real time    1.3671
       DOS:  cpu time    0.0005: real time    0.0005
    CHARGE:  cpu time    0.1073: real time    0.1144
    MIXING:  cpu time    0.0018: real time    0.0018
    --------------------------------------------
      LOOP:  cpu time    1.6052: real time    1.6147

 eigenvalue-minimisations  :   808
 total energy-change (2. order) : 0.1161955E-02  (-0.4511185E-03)
 number of electron     100.0000021 magnetization 
 augmentation part      -10.7518923 magnetization 

 Broyden mixing:
  rms(total) = 0.11079E-01    rms(broyden)= 0.11078E-01
  rms(prec ) = 0.12407E-01
  weight for this iteration     100.00

 eigenvalues of (default mixing * dielectric matrix)
  average eigenvalue GAMMA=   1.2476
  2.3496  2.3496  0.9904  0.9904  0.4897  0.7818  0.7818

 Free energy of the ion-electron system (eV)
  ---------------------------------------------------
  alpha Z        PSCENC =        14.16664101
  Ewald energy   TEWEN  =     22150.99995031
  -Hartree energ DENC   =    -25046.45531401
  -exchange      EXHF   =         0.00000000
  -V(xc)+E(xc)   XCENC  =        68.19767339
  PAW double counting   =      9997.55375442    -9835.68180289
  entropy T*S    EENTRO =        -0.00237234
  eigenvalues    EBANDS =      -973.44207835
  atomic energy  EATOM  =      3520.77905318
  Solvation  Ediel_sol  =         0.00000000
  ---------------------------------------------------
  free energy    TOTEN  =      -103.88449526 eV

  energy without entropy =     -103.88212293  energy(sigma->0) =     -103.88330910


--------------------------------------------------------------------------------------------------------




--------------------------------------- Iteration      1(  13)  ---------------------------------------


    POTLOK:  cpu time    0.0498: real time    0.0591
    SETDIJ:  cpu time    0.0643: real time    0.0676
     EDDAV:  cpu time    1.2345: real time    1.2371
       DOS:  cpu time    0.0005: real time    0.0005
    CHARGE:  cpu time    0.0709: real time    0.0709
    MIXING:  cpu time    0.0018: real time    0.0018
    --------------------------------------------
      LOOP:  cpu time    1.4218: real time    1.4370

 eigenvalue-minimisations  :   808
 total energy-change (2. order) :-0.7545418E-04  (-0.1336097E-03)
 number of electron     100.0000021 magnetization 
 augmentation part      -10.7517722 magnetization 

 Broyden mixing:
  rms(total) = 0.10074E-01    rms(broyden)= 0.10073E-01
  rms(prec ) = 0.11689E-01
  weight for this iteration     100.00

 eigenvalues of (default mixing * dielectric matrix)
  average eigenvalue GAMMA=   1.2010
  2.3968  2.3968  1.0975  1.0975  0.4949  0.7348  0.7348  0.6553

 Free energy of the ion-electron system (eV)
  ---------------------------------------------------
  alpha Z        PSCENC =        14.16664101
  Ewald energy   TEWEN  =     22150.99995031
  -Hartree energ DENC   =    -25048.00129518
  -exchange      EXHF   =         0.00000000
  -V(xc)+E(xc)   XCENC  =        68.22946619
  PAW double counting   =     10018.58218272    -9856.70372694
  entropy T*S    EENTRO =        -0.00260845
  eigenvalues    EBANDS =      -971.93423355
  atomic energy  EATOM  =      3520.77905318
  Solvation  Ediel_sol  =         0.00000000
  ---------------------------------------------------
  free energy    TOTEN  =      -103.88457072 eV

  energy without entropy =     -103.88196226  energy(sigma->0) =     -103.88326649


--------------------------------------------------------------------------------------------------------




--------------------------------------- Iteration      1(  14)  ---------------------------------------


    POTLOK:  cpu time    0.0444: real time    0.0460
    SETDIJ:  cpu time    0.0660: real time    0.0660
     EDDAV:  cpu time    1.2192: real time    1.2201
       DOS:  cpu time    0.0005: real time    0.0005
    CHARGE:  cpu time    0.0706: real time    0.0706
    MIXING:  cpu time    0.0019: real time    0.0019
    --------------------------------------------
      LOOP:  cpu time    1.4026: real time    1.4051

 eigenvalue-minimisations  :   808
 total energy-change (2. order) :-0.1144115E-03  (-0.3891580E-04)
 number of electron     100.0000021 magnetization 
 augmentation part      -10.7514965 magnetization 

 Broyden mixing:
  rms(total) = 0.64299E-02    rms(broyden)= 0.64293E-02
  rms(prec ) = 0.76234E-02
  weight for this iteration     100.00

 eigenvalues of (default mixing * dielectric matrix)
  average eigenvalue GAMMA=   1.2314
  2.4044  2.4044  1.3367  1.3367  0.9529  0.4943  0.7111  0.7212  0.7212

 Free energy of the ion-electron system (eV)
  ---------------------------------------------------
  alpha Z        PSCENC =        14.16664101
  Ewald energy   TEWEN  =     22150.99995031
  -Hartree energ DENC   =    -25048.80813168
  -exchange      EXHF   =         0.00000000
  -V(xc)+E(xc)   XCENC  =        68.23627832
  PAW double counting   =     10009.03814023    -9847.15958151
  entropy T*S    EENTRO =        -0.00228587
  eigenvalues    EBANDS =      -971.13474913
  atomic energy  EATOM  =      3520.77905318
  Solvation  Ediel_sol  =         0.00000000
  ---------------------------------------------------
  free energy    TOTEN  =      -103.88468513 eV

  energy without entropy =     -103.88239926  energy(sigma->0) =     -103.88354219


--------------------------------------------------------------------------------------------------------




--------------------------------------- Iteration      1(  15)  ---------------------------------------


    POTLOK:  cpu time    0.0458: real time    0.0461
    SETDIJ:  cpu time    0.0660: real time    0.0660
     EDDAV:  cpu time    1.1761: real time    1.1766
       DOS:  cpu time    0.0005: real time    0.0005
    CHARGE:  cpu time    0.0704: real time    0.0704
    MIXING:  cpu time    0.0020: real time    0.0020
    --------------------------------------------
      LOOP:  cpu time    1.3607: real time    1.3615

 eigenvalue-minimisations  :   776
 total energy-change (2. order) :-0.2378203E-03  (-0.2336098E-04)
 number of electron     100.0000021 magnetization 
 augmentation part      -10.7509521 magnetization 

 Broyden mixing:
  rms(total) = 0.43037E-02    rms(broyden)= 0.43033E-02
  rms(prec ) = 0.57824E-02
  weight for this iteration     100.00

 eigenvalues of (default mixing * dielectric matrix)
  average eigenvalue GAMMA=   1.3006
  2.5624  2.5624  1.6910  1.6910  0.9778  0.9778  0.4964  0.7080  0.7080  0.6314

 Free energy of the ion-electron system (eV)
  ---------------------------------------------------
  alpha Z        PSCENC =        14.16664101
  Ewald energy   TEWEN  =     22150.99995031
  -Hartree energ DENC   =    -25049.77307001
  -exchange      EXHF   =         0.00000000
  -V(xc)+E(xc)   XCENC  =        68.25037297
  PAW double counting   =     10006.60257899    -9844.72545401
  entropy T*S    EENTRO =        -0.00252322
  eigenvalues    EBANDS =      -970.18247217
  atomic energy  EATOM  =      3520.77905318
  Solvation  Ediel_sol  =         0.00000000
  ---------------------------------------------------
  free energy    TOTEN  =      -103.88492295 eV

  energy without entropy =     -103.88239972  energy(sigma->0) =     -103.88366134


--------------------------------------------------------------------------------------------------------




--------------------------------------- Iteration      1(  16)  ---------------------------------------


    POTLOK:  cpu time    0.0449: real time    0.0467
    SETDIJ:  cpu time    0.0659: real time    0.0661
     EDDAV:  cpu time    1.1903: real time    1.1911
       DOS:  cpu time    0.0005: real time    0.0005
    CHARGE:  cpu time    0.0673: real time    0.0673
    MIXING:  cpu time    0.0022: real time    0.0022
    --------------------------------------------
      LOOP:  cpu time    1.3711: real time    1.3738

 eigenvalue-minimisations  :   760
 total energy-change (2. order) :-0.5158951E-03  (-0.4102162E-04)
 number of electron     100.0000021 magnetization 
 augmentation part      -10.7500858 magnetization 

 Broyden mixing:
  rms(total) = 0.38314E-02    rms(broyden)= 0.38306E-02
  rms(prec ) = 0.49515E-02
  weight for this iteration     100.00

 eigenvalues of (default mixing * dielectric matrix)
  average eigenvalue GAMMA=   1.2871
  2.8528  2.5590  1.5916  1.5916  1.1086  1.1086  0.8410  0.7024  0.7024  0.4976
  0.6023

 Free energy of the ion-electron system (eV)
  ---------------------------------------------------
  alpha Z        PSCENC =        14.16664101
  Ewald energy   TEWEN  =     22150.99995031
  -Hartree energ DENC   =    -25051.56429805
  -exchange      EXHF   =         0.00000000
  -V(xc)+E(xc)   XCENC  =        68.27129281
  PAW double counting   =     10003.26531703    -9841.38826156
  entropy T*S    EENTRO =        -0.00222495
  eigenvalues    EBANDS =      -968.41290864
  atomic energy  EATOM  =      3520.77905318
  Solvation  Ediel_sol  =         0.00000000
  ---------------------------------------------------
  free energy    TOTEN  =      -103.88543884 eV

  energy without entropy =     -103.88321389  energy(sigma->0) =     -103.88432637


--------------------------------------------------------------------------------------------------------




--------------------------------------- Iteration      1(  17)  ---------------------------------------


    POTLOK:  cpu time    0.0454: real time    0.0455
    SETDIJ:  cpu time    0.0661: real time    0.0660
     EDDAV:  cpu time    1.1256: real time    1.1260
       DOS:  cpu time    0.0005: real time    0.0005
    CHARGE:  cpu time    0.0709: real time    0.0709
    MIXING:  cpu time    0.0022: real time    0.0022
    --------------------------------------------
      LOOP:  cpu time    1.3107: real time    1.3113

 eigenvalue-minimisations  :   736
 total energy-change (2. order) :-0.3151075E-03  (-0.1148107E-04)
 number of electron     100.0000021 magnetization 
 augmentation part      -10.7499886 magnetization 

 Broyden mixing:
  rms(total) = 0.18325E-02    rms(broyden)= 0.18323E-02
  rms(prec ) = 0.23982E-02
  weight for this iteration     100.00

 eigenvalues of (default mixing * dielectric matrix)
  average eigenvalue GAMMA=   1.3418
  3.1938  2.6772  1.6795  1.6795  1.2117  1.2117  1.1463  0.7049  0.7049  0.4974
  0.7694  0.6254

 Free energy of the ion-electron system (eV)
  ---------------------------------------------------
  alpha Z        PSCENC =        14.16664101
  Ewald energy   TEWEN  =     22150.99995031
  -Hartree energ DENC   =    -25052.33031625
  -exchange      EXHF   =         0.00000000
  -V(xc)+E(xc)   XCENC  =        68.27955217
  PAW double counting   =     10003.02772854    -9841.14948677
  entropy T*S    EENTRO =        -0.00237381
  eigenvalues    EBANDS =      -967.65650234
  atomic energy  EATOM  =      3520.77905318
  Solvation  Ediel_sol  =         0.00000000
  ---------------------------------------------------
  free energy    TOTEN  =      -103.88575395 eV

  energy without entropy =     -103.88338014  energy(sigma->0) =     -103.88456705


--------------------------------------------------------------------------------------------------------




--------------------------------------- Iteration      1(  18)  ---------------------------------------


    POTLOK:  cpu time    0.0453: real time    0.0472
    SETDIJ:  cpu time    0.0659: real time    0.0661
     EDDAV:  cpu time    1.0620: real time    1.0625
       DOS:  cpu time    0.0005: real time    0.0005
    CHARGE:  cpu time    0.0711: real time    0.0711
    MIXING:  cpu time    0.0023: real time    0.0023
    --------------------------------------------
      LOOP:  cpu time    1.2472: real time    1.2496

 eigenvalue-minimisations  :   672
 total energy-change (2. order) :-0.7537896E-03  (-0.9597645E-05)
 number of electron     100.0000021 magnetization 
 augmentation part      -10.7497839 magnetization 

 Broyden mixing:
  rms(total) = 0.15327E-02    rms(broyden)= 0.15326E-02
  rms(prec ) = 0.16966E-02
  weight for this iteration     100.00

 eigenvalues of (default mixing * dielectric matrix)
  average eigenvalue GAMMA=   1.4462
  4.2289  2.4187  2.4187  1.7144  1.7144  1.0861  1.0861  0.8087  0.8087  0.6965
  0.6965  0.4973  0.6252

 Free energy of the ion-electron system (eV)
  ---------------------------------------------------
  alpha Z        PSCENC =        14.16664101
  Ewald energy   TEWEN  =     22150.99995031
  -Hartree energ DENC   =    -25053.60790588
  -exchange      EXHF   =         0.00000000
  -V(xc)+E(xc)   XCENC  =        68.28653889
  PAW double counting   =      9998.31146652    -9836.43164145
  entropy T*S    EENTRO =        -0.00241380
  eigenvalues    EBANDS =      -966.38819652
  atomic energy  EATOM  =      3520.77905318
  Solvation  Ediel_sol  =         0.00000000
  ---------------------------------------------------
  free energy    TOTEN  =      -103.88650774 eV

  energy without entropy =     -103.88409394  energy(sigma->0) =     -103.88530084


--------------------------------------------------------------------------------------------------------




--------------------------------------- Iteration      1(  19)  ---------------------------------------


    POTLOK:  cpu time    0.0452: real time    0.0468
    SETDIJ:  cpu time    0.0660: real time    0.0661
     EDDAV:  cpu time    0.9489: real time    0.9494
       DOS:  cpu time    0.0004: real time    0.0004
    CHARGE:  cpu time    0.0709: real time    0.0709
    MIXING:  cpu time    0.0025: real time    0.0025
    --------------------------------------------
      LOOP:  cpu time    1.1340: real time    1.1361

 eigenvalue-minimisations  :   568
 total energy-change (2. order) :-0.3066616E-03  (-0.1765899E-05)
 number of electron     100.0000021 magnetization 
 augmentation part      -10.7497365 magnetization 

 Broyden mixing:
  rms(total) = 0.15498E-02    rms(broyden)= 0.15498E-02
  rms(prec ) = 0.16927E-02
  weight for this iteration     100.00

 eigenvalues of (default mixing * dielectric matrix)
  average eigenvalue GAMMA=   1.4122
  4.3536  2.4553  2.0742  1.6538  1.6538  1.1721  1.1721  0.9791  0.9791  0.6985
  0.6985  0.4974  0.7671  0.6164

 Free energy of the ion-electron system (eV)
  ---------------------------------------------------
  alpha Z        PSCENC =        14.16664101
  Ewald energy   TEWEN  =     22150.99995031
  -Hartree energ DENC   =    -25054.06576370
  -exchange      EXHF   =         0.00000000
  -V(xc)+E(xc)   XCENC  =        68.28989688
  PAW double counting   =     10001.55427159    -9839.67443820
  entropy T*S    EENTRO =        -0.00243352
  eigenvalues    EBANDS =      -965.93399196
  atomic energy  EATOM  =      3520.77905318
  Solvation  Ediel_sol  =         0.00000000
  ---------------------------------------------------
  free energy    TOTEN  =      -103.88681440 eV

  energy without entropy =     -103.88438088  energy(sigma->0) =     -103.88559764


--------------------------------------------------------------------------------------------------------




--------------------------------------- Iteration      1(  20)  ---------------------------------------


    POTLOK:  cpu time    0.0444: real time    0.0462
    SETDIJ:  cpu time    0.0660: real time    0.0660
     EDDAV:  cpu time    0.8369: real time    0.8374
       DOS:  cpu time    0.0005: real time    0.0005
    CHARGE:  cpu time    0.0711: real time    0.0711
    MIXING:  cpu time    0.0028: real time    0.0028
    --------------------------------------------
      LOOP:  cpu time    1.0216: real time    1.0239

 eigenvalue-minimisations  :   464
 total energy-change (2. order) :-0.1026477E-03  (-0.3972385E-06)
 number of electron     100.0000021 magnetization 
 augmentation part      -10.7496917 magnetization 

 Broyden mixing:
  rms(total) = 0.77965E-03    rms(broyden)= 0.77963E-03
  rms(prec ) = 0.87477E-03
  weight for this iteration     100.00

 eigenvalues of (default mixing * dielectric matrix)
  average eigenvalue GAMMA=   1.6040
  5.7214  2.4734  2.4344  2.4344  1.6564  1.6564  1.1524  1.1524  1.1329  0.4974
  0.6993  0.6993  0.8658  0.8658  0.6184

 Free energy of the ion-electron system (eV)
  ---------------------------------------------------
  alpha Z        PSCENC =        14.16664101
  Ewald energy   TEWEN  =     22150.99995031
  -Hartree energ DENC   =    -25054.20120687
  -exchange      EXHF   =         0.00000000
  -V(xc)+E(xc)   XCENC  =        68.29020873
  PAW double counting   =     10000.50918948    -9838.62932627
  entropy T*S    EENTRO =        -0.00240941
  eigenvalues    EBANDS =      -965.79901721
  atomic energy  EATOM  =      3520.77905318
  Solvation  Ediel_sol  =         0.00000000
  ---------------------------------------------------
  free energy    TOTEN  =      -103.88691705 eV

  energy without entropy =     -103.88450764  energy(sigma->0) =     -103.88571234


--------------------------------------------------------------------------------------------------------




--------------------------------------- Iteration      1(  21)  ---------------------------------------


    POTLOK:  cpu time    0.0465: real time    0.0467
    SETDIJ:  cpu time    0.0661: real time    0.0661
     EDDAV:  cpu time    0.9316: real time    0.9323
       DOS:  cpu time    0.0007: real time    0.0007
    CHARGE:  cpu time    0.0713: real time    0.0713
    MIXING:  cpu time    0.0043: real time    0.0043
    --------------------------------------------
      LOOP:  cpu time    1.1204: real time    1.1214

 eigenvalue-minimisations  :   544
 total energy-change (2. order) :-0.2927627E-03  (-0.1537772E-05)
 number of electron     100.0000021 magnetization 
 augmentation part      -10.7496563 magnetization 

 Broyden mixing:
  rms(total) = 0.62730E-03    rms(broyden)= 0.62728E-03
  rms(prec ) = 0.65782E-03
  weight for this iteration     100.00

 eigenvalues of (default mixing * dielectric matrix)
  average eigenvalue GAMMA=   1.6272
  6.5252  2.9171  2.4930  1.7885  1.7885  1.5720  1.5720  1.1435  1.1435  0.4974
  0.6992  0.6992  0.8859  0.8859  0.8056  0.6186

 Free energy of the ion-electron system (eV)
  ---------------------------------------------------
  alpha Z        PSCENC =        14.16664101
  Ewald energy   TEWEN  =     22150.99995031
  -Hartree energ DENC   =    -25054.52253168
  -exchange      EXHF   =         0.00000000
  -V(xc)+E(xc)   XCENC  =        68.29069207
  PAW double counting   =     10000.17611130    -9838.29610789
  entropy T*S    EENTRO =        -0.00239885
  eigenvalues    EBANDS =      -965.47861927
  atomic energy  EATOM  =      3520.77905318
  Solvation  Ediel_sol  =         0.00000000
  ---------------------------------------------------
  free energy    TOTEN  =      -103.88720981 eV

  energy without entropy =     -103.88481097  energy(sigma->0) =     -103.88601039


--------------------------------------------------------------------------------------------------------




--------------------------------------- Iteration      1(  22)  ---------------------------------------


    POTLOK:  cpu time    0.0449: real time    0.0464
    SETDIJ:  cpu time    0.0659: real time    0.0661
     EDDAV:  cpu time    0.8358: real time    0.8362
       DOS:  cpu time    0.0005: real time    0.0005
    CHARGE:  cpu time    0.0706: real time    0.0709
    MIXING:  cpu time    0.0027: real time    0.0027
    --------------------------------------------
      LOOP:  cpu time    1.0205: real time    1.0227

 eigenvalue-minimisations  :   464
 total energy-change (2. order) :-0.5393554E-04  (-0.2224508E-06)
 number of electron     100.0000021 magnetization 
 augmentation part      -10.7496567 magnetization 

 Broyden mixing:
  rms(total) = 0.22375E-03    rms(broyden)= 0.22374E-03
  rms(prec ) = 0.26792E-03
  weight for this iteration     100.00

 eigenvalues of (default mixing * dielectric matrix)
  average eigenvalue GAMMA=   1.6034
  6.7602  2.9280  2.4791  1.7519  1.7519  1.6025  1.6025  1.1715  1.1715  0.9825
  0.9825  0.6992  0.6992  0.4974  0.6178  0.7797  0.7797

 Free energy of the ion-electron system (eV)
  ---------------------------------------------------
  alpha Z        PSCENC =        14.16664101
  Ewald energy   TEWEN  =     22150.99995031
  -Hartree energ DENC   =    -25054.56773936
  -exchange      EXHF   =         0.00000000
  -V(xc)+E(xc)   XCENC  =        68.29045450
  PAW double counting   =     10000.81940248    -9838.93954356
  entropy T*S    EENTRO =        -0.00239840
  eigenvalues    EBANDS =      -965.43308391
  atomic energy  EATOM  =      3520.77905318
  Solvation  Ediel_sol  =         0.00000000
  ---------------------------------------------------
  free energy    TOTEN  =      -103.88726375 eV

  energy without entropy =     -103.88486535  energy(sigma->0) =     -103.88606455


--------------------------------------------------------------------------------------------------------




--------------------------------------- Iteration      1(  23)  ---------------------------------------


    POTLOK:  cpu time    0.0450: real time    0.0465
    SETDIJ:  cpu time    0.0661: real time    0.0661
     EDDAV:  cpu time    0.7905: real time    0.7911
       DOS:  cpu time    0.0005: real time    0.0005
    CHARGE:  cpu time    0.0715: real time    0.0715
    MIXING:  cpu time    0.0031: real time    0.0031
    --------------------------------------------
      LOOP:  cpu time    0.9767: real time    0.9787

 eigenvalue-minimisations  :   424
 total energy-change (2. order) :-0.3725846E-04  (-0.7456037E-07)
 number of electron     100.0000021 magnetization 
 augmentation part      -10.7496601 magnetization 

 Broyden mixing:
  rms(total) = 0.13398E-03    rms(broyden)= 0.13397E-03
  rms(prec ) = 0.17891E-03
  weight for this iteration     100.00

 eigenvalues of (default mixing * dielectric matrix)
  average eigenvalue GAMMA=   1.7155
  7.2368  3.5628  2.4875  2.4875  1.6298  1.6298  1.7706  1.7706  1.1254  1.1254
  0.4974  0.6991  0.6991  0.9077  0.9077  0.9089  0.8150  0.6184

 Free energy of the ion-electron system (eV)
  ---------------------------------------------------
  alpha Z        PSCENC =        14.16664101
  Ewald energy   TEWEN  =     22150.99995031
  -Hartree energ DENC   =    -25054.59334648
  -exchange      EXHF   =         0.00000000
  -V(xc)+E(xc)   XCENC  =        68.29039034
  PAW double counting   =     10000.80960129    -9838.92969458
  entropy T*S    EENTRO =        -0.00239914
  eigenvalues    EBANDS =      -965.40749694
  atomic energy  EATOM  =      3520.77905318
  Solvation  Ediel_sol  =         0.00000000
  ---------------------------------------------------
  free energy    TOTEN  =      -103.88730101 eV

  energy without entropy =     -103.88490187  energy(sigma->0) =     -103.88610144


--------------------------------------------------------------------------------------------------------




--------------------------------------- Iteration      1(  24)  ---------------------------------------


    POTLOK:  cpu time    0.0458: real time    0.0474
    SETDIJ:  cpu time    0.0661: real time    0.0661
     EDDAV:  cpu time    0.8320: real time    0.8325
       DOS:  cpu time    0.0005: real time    0.0005
    CHARGE:  cpu time    0.0709: real time    0.0709
    MIXING:  cpu time    0.0030: real time    0.0030
    --------------------------------------------
      LOOP:  cpu time    1.0183: real time    1.0203

 eigenvalue-minimisations  :   464
 total energy-change (2. order) :-0.7245562E-04  (-0.1932613E-06)
 number of electron     100.0000021 magnetization 
 augmentation part      -10.7496752 magnetization 

 Broyden mixing:
  rms(total) = 0.20910E-03    rms(broyden)= 0.20910E-03
  rms(prec ) = 0.22435E-03
  weight for this iteration     100.00

 eigenvalues of (default mixing * dielectric matrix)
  average eigenvalue GAMMA=   1.7019
  7.4652  3.8188  2.4719  2.4719  1.5967  1.5967  1.5278  1.5278  1.4850  1.1571
  1.1571  0.4974  0.6991  0.6991  1.0206  0.8602  0.8602  0.8048  0.6184

 Free energy of the ion-electron system (eV)
  ---------------------------------------------------
  alpha Z        PSCENC =        14.16664101
  Ewald energy   TEWEN  =     22150.99995031
  -Hartree energ DENC   =    -25054.63027329
  -exchange      EXHF   =         0.00000000
  -V(xc)+E(xc)   XCENC  =        68.28995531
  PAW double counting   =     10000.75047298    -9838.87052181
  entropy T*S    EENTRO =        -0.00239788
  eigenvalues    EBANDS =      -965.37025327
  atomic energy  EATOM  =      3520.77905318
  Solvation  Ediel_sol  =         0.00000000
  ---------------------------------------------------
  free energy    TOTEN  =      -103.88737346 eV

  energy without entropy =     -103.88497559  energy(sigma->0) =     -103.88617452


--------------------------------------------------------------------------------------------------------




--------------------------------------- Iteration      1(  25)  ---------------------------------------


    POTLOK:  cpu time    0.0467: real time    0.0483
    SETDIJ:  cpu time    0.0661: real time    0.0661
     EDDAV:  cpu time    0.7951: real time    0.7957
       DOS:  cpu time    0.0005: real time    0.0005
    CHARGE:  cpu time    0.0728: real time    0.0728
    MIXING:  cpu time    0.0033: real time    0.0033
    --------------------------------------------
      LOOP:  cpu time    0.9845: real time    0.9866

 eigenvalue-minimisations  :   424
 total energy-change (2. order) :-0.1157414E-04  (-0.5279615E-07)
 number of electron     100.0000021 magnetization 
 augmentation part      -10.7496874 magnetization 

 Broyden mixing:
  rms(total) = 0.10107E-03    rms(broyden)= 0.10107E-03
  rms(prec ) = 0.10928E-03
  weight for this iteration     100.00

 eigenvalues of (default mixing * dielectric matrix)
  average eigenvalue GAMMA=   1.7664
  7.6593  4.6335  2.3972  2.3580  2.3580  1.5687  1.5687  1.6947  1.6947  1.1178
  1.1178  1.2299  0.4974  0.6991  0.6991  0.8614  0.8614  0.8653  0.8278  0.6184

 Free energy of the ion-electron system (eV)
  ---------------------------------------------------
  alpha Z        PSCENC =        14.16664101
  Ewald energy   TEWEN  =     22150.99995031
  -Hartree energ DENC   =    -25054.63678824
  -exchange      EXHF   =         0.00000000
  -V(xc)+E(xc)   XCENC  =        68.28989479
  PAW double counting   =     10000.79113014    -9838.91115373
  entropy T*S    EENTRO =        -0.00240085
  eigenvalues    EBANDS =      -965.36371164
  atomic energy  EATOM  =      3520.77905318
  Solvation  Ediel_sol  =         0.00000000
  ---------------------------------------------------
  free energy    TOTEN  =      -103.88738504 eV

  energy without entropy =     -103.88498418  energy(sigma->0) =     -103.88618461


--------------------------------------------------------------------------------------------------------




--------------------------------------- Iteration      1(  26)  ---------------------------------------


    POTLOK:  cpu time    0.0462: real time    0.0475
    SETDIJ:  cpu time    0.0661: real time    0.0661
     EDDAV:  cpu time    0.7971: real time    0.7975
       DOS:  cpu time    0.0005: real time    0.0005
    --------------------------------------------
      LOOP:  cpu time    0.9940: real time    0.9958

 eigenvalue-minimisations  :   432
 total energy-change (2. order) :-0.9541407E-05  (-0.4574707E-07)
 number of electron     100.0000021 magnetization 
 augmentation part      -10.7496874 magnetization 

 Free energy of the ion-electron system (eV)
  ---------------------------------------------------
  alpha Z        PSCENC =        14.16664101
  Ewald energy   TEWEN  =     22150.99995031
  -Hartree energ DENC   =    -25054.64585764
  -exchange      EXHF   =         0.00000000
  -V(xc)+E(xc)   XCENC  =        68.28984399
  PAW double counting   =     10000.78124523    -9838.90128181
  entropy T*S    EENTRO =        -0.00240207
  eigenvalues    EBANDS =      -965.35458677
  atomic energy  EATOM  =      3520.77905318
  Solvation  Ediel_sol  =         0.00000000
  ---------------------------------------------------
  free energy    TOTEN  =      -103.88739458 eV

  energy without entropy =     -103.88499251  energy(sigma->0) =     -103.88619354


--------------------------------------------------------------------------------------------------------




 the core state eigenenergies are
   1-  1s  -2082.5294  2s   -172.5583  2p   -123.0440
   2-  1s  -2082.5259  2s   -172.5329  2p   -123.0207
   3-  1s  -2081.7770  2s   -171.7823  2p   -122.2708
   4-  1s  -2082.5532  2s   -172.5018  2p   -122.9937
   5-  1s  -2082.5740  2s   -172.5960  2p   -123.0823
   6-  1s  -2082.5635  2s   -172.5661  2p   -123.0546
   7-  1s  -2081.8013  2s   -171.8037  2p   -122.2925
   8-  1s  -2082.5632  2s   -172.5105  2p   -123.0024
   9-  1s  -2082.5259  2s   -172.5329  2p   -123.0207
  10-  1s  -2082.5294  2s   -172.5583  2p   -123.0440
  11-  1s  -2082.8542  2s   -172.8497  2p   -123.3382
  12-  1s  -2082.8542  2s   -172.8497  2p   -123.3382
  13-  1s  -2082.5635  2s   -172.5661  2p   -123.0546
  14-  1s  -2082.5740  2s   -172.5960  2p   -123.0823
  15-  1s  -2082.7358  2s   -172.7472  2p   -123.2344
  16-  1s  -2082.7358  2s   -172.7472  2p   -123.2344
  17-  1s  -2082.5532  2s   -172.5018  2p   -122.9937
  18-  1s  -2081.7770  2s   -171.7823  2p   -122.2708
  19-  1s  -2082.5632  2s   -172.5105  2p   -123.0024
  20-  1s  -2081.8013  2s   -171.8037  2p   -122.2925
 
 E-fermi :  -3.6921     XC(G=0):  -1.7475     alpha+bet : -1.5600


 k-point     1 :       0.0000    0.0000    0.0000
  band No.  band energies     occupation 
      1     -18.7187      2.00000
      2     -18.5940      2.00000
      3     -17.9827      2.00000
      4     -17.8801      2.00000
      5     -17.1679      2.00000
      6     -17.1300      2.00000
      7     -16.3713      2.00000
      8     -16.2948      2.00000
      9     -16.2699      2.00000
     10     -16.0455      2.00000
     11     -12.8159      2.00000
     12     -12.6781      2.00000
     13     -12.5345      2.00000
     14     -12.2847      2.00000
     15     -11.7481      2.00000
     16     -11.5360      2.00000
     17     -10.8105      2.00000
     18     -10.5951      2.00000
     19      -9.2952      2.00000
     20      -9.0791      2.00000
     21      -8.9805      2.00000
     22      -8.5177      2.00000
     23      -8.0359      2.00000
     24      -7.7067      2.00000
     25      -7.4842      2.00000
     26      -7.3111      2.00000
     27      -7.2336      2.00000
     28      -7.2164      2.00000
     29      -6.8854      2.00000
     30      -6.7069      2.00000
     31      -6.6377      2.00000
     32      -6.1914      2.00000
     33      -6.1790      2.00000
     34      -6.1564      2.00000
     35      -6.0428      2.00000
     36      -5.9224      2.00000
     37      -5.6126      2.00000
     38      -5.6027      2.00000
     39      -5.5963      2.00000
     40      -5.5604      2.00000
     41      -5.4948      2.00000
     42      -5.3439      2.00000
     43      -5.0238      2.00000
     44      -4.9160      2.00000
     45      -4.8681      2.00000
     46      -4.6393      2.00000
     47      -4.2403      2.00000
     48      -4.0915      2.00000
     49      -3.6389      0.00000
     50      -3.5463      0.00000
     51      -3.2847      0.00000
     52      -3.0877      0.00000
     53      -2.3090      0.00000
     54      -2.2268      0.00000
     55      -2.1353      0.00000
     56      -1.9212      0.00000
     57      -1.8410      0.00000
     58      -1.7979      0.00000
     59      -1.7710      0.00000
     60      -1.4151      0.00000
     61      -1.3272      0.00000
     62      -1.3025      0.00000
     63      -1.2961      0.00000
     64      -1.1707      0.00000

 k-point     2 :       0.1250    0.0000    0.0000
  band No.  band energies     occupation 
      1     -18.5383      2.00000
      2     -18.4146      2.00000
      3     -17.8067      2.00000
      4     -17.7050      2.00000
      5     -16.9950      2.00000
      6     -16.9569      2.00000
      7     -16.1927      2.00000
      8     -16.1183      2.00000
      9     -16.0821      2.00000
     10     -15.8581      2.00000
     11     -12.8657      2.00000
     12     -12.7443      2.00000
     13     -12.5027      2.00000
     14     -12.2698      2.00000
     15     -11.7326      2.00000
     16     -11.5124      2.00000
     17     -10.7472      2.00000
     18     -10.5415      2.00000
     19      -9.3631      2.00000
     20      -9.1195      2.00000
     21      -8.9966      2.00000
     22      -8.4264      2.00000
     23      -8.2970      2.00000
     24      -8.1808      2.00000
     25      -8.1352      2.00000
     26      -7.9993      2.00000
     27      -7.9383      2.00000
     28      -7.4347      2.00000
     29      -7.3931      2.00000
     30      -7.2656      2.00000
     31      -7.2459      2.00000
     32      -7.1212      2.00000
     33      -6.7895      2.00000
     34      -6.5623      2.00000
     35      -6.5296      2.00000
     36      -6.4734      2.00000
     37      -6.4577      2.00000
     38      -5.8988      2.00000
     39      -5.7555      2.00000
     40      -5.6107      2.00000
     41      -5.4693      2.00000
     42      -5.3182      2.00000
     43      -4.9806      2.00000
     44      -4.8118      2.00000
     45      -4.7263      2.00000
     46      -4.6146      2.00000
     47      -4.4553      2.00000
     48      -4.2261      2.00000
     49      -3.6881      0.57072
     50      -3.5874      0.00000
     51      -3.2452      0.00000
     52      -3.1366      0.00000
     53      -2.1813      0.00000
     54      -1.5213      0.00000
     55      -1.2749      0.00000
     56      -1.1519      0.00000
     57      -1.1247      0.00000
     58      -1.0219      0.00000
     59      -0.9475      0.00000
     60      -0.8508      0.00000
     61      -0.8412      0.00000
     62      -0.7705      0.00000
     63      -0.7121      0.00000
     64      -0.5571      0.00000

 k-point     3 :       0.2500    0.0000    0.0000
  band No.  band energies     occupation 
      1     -18.0035      2.00000
      2     -17.8832      2.00000
      3     -17.2895      2.00000
      4     -17.1914      2.00000
      5     -16.4945      2.00000
      6     -16.4560      2.00000
      7     -15.6777      2.00000
      8     -15.6127      2.00000
      9     -15.5221      2.00000
     10     -15.2991      2.00000
     11     -13.3040      2.00000
     12     -13.1935      2.00000
     13     -12.6505      2.00000
     14     -12.4777      2.00000
     15     -11.8448      2.00000
     16     -11.6684      2.00000
     17     -10.8428      2.00000
     18     -10.7329      2.00000
     19     -10.1510      2.00000
     20     -10.0801      2.00000
     21      -9.4196      2.00000
     22      -9.3713      2.00000
     23      -9.2617      2.00000
     24      -9.1579      2.00000
     25      -8.8854      2.00000
     26      -8.6775      2.00000
     27      -8.5812      2.00000
     28      -8.5365      2.00000
     29      -7.8448      2.00000
     30      -7.8151      2.00000
     31      -7.7412      2.00000
     32      -7.4787      2.00000
     33      -6.9497      2.00000
     34      -6.8695      2.00000
     35      -6.8135      2.00000
     36      -6.7545      2.00000
     37      -6.3341      2.00000
     38      -5.8673      2.00000
     39      -5.7171      2.00000
     40      -5.6703      2.00000
     41      -5.6121      2.00000
     42      -5.3387      2.00000
     43      -5.2357      2.00000
     44      -5.2238      2.00000
     45      -5.1125      2.00000
     46      -4.8560      2.00000
     47      -4.8038      2.00000
     48      -4.7666      2.00000
     49      -3.7940      2.00000
     50      -3.6961      1.42928
     51      -3.5425      0.00000
     52      -3.3927      0.00000
     53      -2.1181      0.00000
     54      -1.9992      0.00000
     55      -1.7014      0.00000
     56      -1.3339      0.00000
     57      -1.2133      0.00000
     58      -1.1637      0.00000
     59      -1.0021      0.00000
     60      -0.9270      0.00000
     61      -0.9078      0.00000
     62      -0.8136      0.00000
     63      -0.7913      0.00000
     64      -0.2986      0.00000

 k-point     4 :       0.3750    0.0000    0.0000
  band No.  band energies     occupation 
      1     -17.1388      2.00000
      2     -17.0262      2.00000
      3     -16.4812      2.00000
      4     -16.3936      2.00000
      5     -15.7782      2.00000
      6     -15.7458      2.00000
      7     -15.1241      2.00000
      8     -15.0835      2.00000
      9     -14.6034      2.00000
     10     -14.3808      2.00000
     11     -14.0978      2.00000
     12     -13.9535      2.00000
     13     -13.3990      2.00000
     14     -13.2859      2.00000
     15     -12.6301      2.00000
     16     -12.5777      2.00000
     17     -11.9021      2.00000
     18     -11.8505      2.00000
     19     -11.7780      2.00000
     20     -11.5932      2.00000
     21      -9.6047      2.00000
     22      -9.5135      2.00000
     23      -9.3456      2.00000
     24      -9.2262      2.00000
     25      -8.7182      2.00000
     26      -8.6825      2.00000
     27      -8.6006      2.00000
     28      -8.5286      2.00000
     29      -7.7565      2.00000
     30      -7.6492      2.00000
     31      -7.5959      2.00000
     32      -7.4514      2.00000
     33      -7.2929      2.00000
     34      -7.0572      2.00000
     35      -7.0333      2.00000
     36      -6.7640      2.00000
     37      -6.3109      2.00000
     38      -6.2463      2.00000
     39      -6.1363      2.00000
     40      -6.1252      2.00000
     41      -5.9406      2.00000
     42      -5.8593      2.00000
     43      -5.5416      2.00000
     44      -5.3195      2.00000
     45      -5.2607      2.00000
     46      -4.9526      2.00000
     47      -4.9036      2.00000
     48      -4.8634      2.00000
     49      -3.9822      2.00000
     50      -3.9398      2.00000
     51      -3.7867      2.00000
     52      -3.7437      2.00000
     53      -2.1065      0.00000
     54      -1.9734      0.00000
     55      -1.8682      0.00000
     56      -1.6818      0.00000
     57      -1.6701      0.00000
     58      -1.4422      0.00000
     59      -1.3715      0.00000
     60      -1.0749      0.00000
     61      -1.0738      0.00000
     62      -0.9587      0.00000
     63      -0.8358      0.00000
     64      -0.7026      0.00000

 k-point     5 :       0.5000    0.0000    0.0000
  band No.  band energies     occupation 
      1     -16.0258      2.00000
      2     -16.0258      2.00000
      3     -15.9358      2.00000
      4     -15.9358      2.00000
      5     -15.6021      2.00000
      6     -15.6021      2.00000
      7     -15.5635      2.00000
      8     -15.5635      2.00000
      9     -13.6534      2.00000
     10     -13.6534      2.00000
     11     -13.6125      2.00000
     12     -13.6125      2.00000
     13     -13.3966      2.00000
     14     -13.3966      2.00000
     15     -13.3473      2.00000
     16     -13.3473      2.00000
     17     -13.1287      2.00000
     18     -13.1287      2.00000
     19     -13.0683      2.00000
     20     -13.0683      2.00000
     21      -8.8942      2.00000
     22      -8.8942      2.00000
     23      -8.7653      2.00000
     24      -8.7653      2.00000
     25      -8.6267      2.00000
     26      -8.6267      2.00000
     27      -8.4578      2.00000
     28      -8.4578      2.00000
     29      -8.1110      2.00000
     30      -8.1110      2.00000
     31      -7.9454      2.00000
     32      -7.9454      2.00000
     33      -7.2835      2.00000
     34      -7.2835      2.00000
     35      -7.1418      2.00000
     36      -7.1418      2.00000
     37      -6.3030      2.00000
     38      -6.3030      2.00000
     39      -6.2121      2.00000
     40      -6.2121      2.00000
     41      -5.7836      2.00000
     42      -5.7836      2.00000
     43      -5.4378      2.00000
     44      -5.4378      2.00000
     45      -5.2316      2.00000
     46      -5.2316      2.00000
     47      -5.0740      2.00000
     48      -5.0740      2.00000
     49      -3.9467      2.00000
     50      -3.9467      2.00000
     51      -3.8494      2.00000
     52      -3.8494      2.00000
     53      -2.1382      0.00000
     54      -2.1382      0.00000
     55      -1.9077      0.00000
     56      -1.9077      0.00000
     57      -1.5898      0.00000
     58      -1.5898      0.00000
     59      -1.4051      0.00000
     60      -1.4051      0.00000
     61      -1.1029      0.00000
     62      -1.1029      0.00000
     63      -1.0611      0.00000
     64      -1.0611      0.00000


--------------------------------------------------------------------------------------------------------


 soft charge-density along one line, spin component           1
         0         1         2         3         4         5         6         7         8         9
 total charge-density along one line
 
 pseudopotential strength for first ion, spin component:           1
 30.593  38.166   0.032  -0.030  -0.000   0.050  -0.047  -0.000
 38.166  47.618   0.040  -0.037   0.000   0.063  -0.059   0.000
  0.032   0.040   6.719   0.006  -0.000  10.390   0.009  -0.000
 -0.030  -0.037   0.006   6.720  -0.000   0.009  10.392  -0.000
 -0.000   0.000  -0.000  -0.000   6.724  -0.000  -0.000  10.397
  0.050   0.063  10.390   0.009  -0.000  16.086   0.014  -0.000
 -0.047  -0.059   0.009  10.392  -0.000   0.014  16.088  -0.000
 -0.000   0.000  -0.000  -0.000  10.397  -0.000  -0.000  16.097
 total augmentation occupancy for first ion, spin component:           1
  8.259  -4.689   1.840  -1.902   0.000  -0.613   0.651   0.000
 -4.689   3.393  -1.579   1.608   0.000   0.458  -0.480   0.000
  1.840  -1.579   3.194   0.197   0.000  -0.873  -0.166   0.000
 -1.902   1.608   0.197   3.376   0.000  -0.165  -0.962   0.000
  0.000   0.000   0.000   0.000   3.517   0.000   0.000  -1.068
 -0.613   0.458  -0.873  -0.165   0.000   0.276   0.073   0.000
  0.651  -0.480  -0.166  -0.962   0.000   0.073   0.313   0.000
  0.000   0.000   0.000   0.000  -1.068   0.000   0.000   0.356


------------------------ aborting loop because EDIFF is reached ----------------------------------------


 


 total charge     
 
# of ion       s       p       d       tot
------------------------------------------
    1        1.081   1.380   0.000   2.461
    2        1.092   1.359   0.000   2.451
    3        1.105   1.327   0.000   2.432
    4        1.070   1.361   0.000   2.431
    5        1.081   1.377   0.000   2.458
    6        1.099   1.349   0.000   2.448
    7        1.105   1.326   0.000   2.431
    8        1.070   1.360   0.000   2.430
    9        1.092   1.359   0.000   2.451
   10        1.081   1.380   0.000   2.461
   11        1.083   1.364   0.000   2.447
   12        1.083   1.364   0.000   2.447
   13        1.099   1.349   0.000   2.448
   14        1.081   1.377   0.000   2.458
   15        1.082   1.372   0.000   2.454
   16        1.082   1.372   0.000   2.454
   17        1.070   1.361   0.000   2.431
   18        1.105   1.327   0.000   2.432
   19        1.070   1.360   0.000   2.430
   20        1.105   1.326   0.000   2.431
--------------------------------------------------
tot         21.737  27.152   0.000  48.889
 
    CHARGE:  cpu time    0.0695: real time    0.0695
    FORLOC:  cpu time    0.0070: real time    0.0070
    FORNL :  cpu time    0.4208: real time    0.4223
    STRESS:  cpu time    0.6064: real time    0.6072
    FORCOR:  cpu time    0.0512: real time    0.0519
    FORHAR:  cpu time    0.0177: real time    0.0181
    MIXING:  cpu time    0.0033: real time    0.0033
    OFIELD:  cpu time    0.0001: real time    0.0001

  DFT-D2 method for vdW energy calculation
  -------------------------------------------------------------------

  Parameters of vdW forcefield:
         C6(Jnm^6/mol)     R0(A)
   -----------------------------
   P        7.840          1.705

  IVDW =  10
  VDW_RADIUS =    50.000 A
  VDW_S6 =     0.750
  VDW_SR =     1.000
  VDW_D =    20.000
  LVDW_EWALD = F

  Number of pair interactions contributing to vdW energy:   39960
  Edisp (eV):   -2.56194
    FORVDW:  cpu time    0.0474: real time    0.0868

  FORCE on cell =-STRESS in cart. coord.  units (eV):
  Direction    XX          YY          ZZ          XY          YZ          ZX
  --------------------------------------------------------------------------------------
  Alpha Z    14.16664    14.16664    14.16664
  Ewald   24843.19318   -71.16258 -2621.03602    -0.00000     0.00000    -0.00000
  Hartree 24936.10360  1530.89281 -1412.31487    -0.00000    -0.00000    -0.00000
  E(xc)    -332.36046  -335.31445  -333.49274     0.00000     0.00000    -0.00000
  Local  -51328.77759 -3068.34627  2447.29465     0.00000    -0.00000     0.00000
  n-local  1133.85270  1121.81504  1125.37427    -0.00000     0.00000     0.00000
  augment  -211.75771  -216.11007  -215.73536     0.00000    -0.00000     0.00000
  Kinetic   936.56967  1023.96080   988.20710     0.00000     0.00000    -0.00000
  Fock        0.00000     0.00000     0.00000     0.00000     0.00000     0.00000
  vdW         0.23532    -1.39051    -0.75079    -0.00000     0.00000    -0.00000
  -------------------------------------------------------------------------------------
  Total      -8.77465    -1.48859    -8.28712     0.00000     0.00000     0.00000
  in kB      -4.96615    -0.84249    -4.69022     0.00000     0.00000     0.00000
  external pressure =       -3.50 kB  Pullay stress =        0.00 kB


 VOLUME and BASIS-vectors are now :
 -----------------------------------------------------------------------------
  energy-cutoff  :      300.00
  volume of cell :     2830.88
      direct lattice vectors                 reciprocal lattice vectors
     3.342886000  0.000000000  0.000000000     0.299142717  0.000000000  0.000000000
     0.000000000 27.372863559  0.000000000     0.000000000  0.036532531  0.000000000
     0.000000000  0.000000000 30.937077500     0.000000000  0.000000000  0.032323674

  length of vectors
     3.342886000 27.372863559 30.937077500     0.299142717  0.036532531  0.032323674


 FORCES acting on ions
    electron-ion (+dipol)            ewald-force                    non-local-force                 convergence-correction
 -----------------------------------------------------------------------------------------------
   0.356E-15 0.445E+03 0.102E+03   0.177E-15 -.450E+03 -.972E+02   0.000E+00 0.525E+01 -.454E+01   0.118E-14 -.464E-03 -.232E-03
   -.146E-13 0.418E+03 0.305E+03   0.363E-14 -.423E+03 -.311E+03   0.000E+00 0.528E+01 0.528E+01   -.698E-15 -.169E-03 -.551E-03
   0.898E-15 0.119E+03 0.513E+03   -.448E-14 -.119E+03 -.519E+03   0.000E+00 -.651E+00 0.696E+01   0.823E-16 0.790E-04 -.379E-03
   -.160E-13 0.105E+03 0.340E+03   -.298E-14 -.101E+03 -.338E+03   0.000E+00 -.388E+01 -.379E+01   0.722E-16 0.194E-03 -.463E-03
   -.171E-13 -.894E+02 0.120E+03   0.496E-14 0.845E+02 -.115E+03   0.000E+00 0.505E+01 -.447E+01   0.438E-15 -.239E-03 -.549E-03
   0.756E-15 -.754E+02 0.334E+03   0.584E-14 0.704E+02 -.340E+03   0.000E+00 0.511E+01 0.562E+01   -.157E-14 -.356E-03 -.572E-03
   -.172E-13 -.251E+03 0.447E+03   -.312E-14 0.252E+03 -.453E+03   0.000E+00 -.607E+00 0.697E+01   -.127E-14 -.363E-03 -.419E-03
   0.154E-14 -.357E+03 0.275E+03   -.257E-14 0.361E+03 -.273E+03   0.000E+00 -.391E+01 -.367E+01   -.940E-16 -.385E-03 -.432E-03
   0.165E-14 0.418E+03 -.305E+03   -.102E-14 -.423E+03 0.311E+03   0.000E+00 0.528E+01 -.528E+01   0.117E-14 -.169E-03 0.551E-03
   -.160E-13 0.445E+03 -.102E+03   0.529E-14 -.450E+03 0.972E+02   0.000E+00 0.525E+01 0.454E+01   0.381E-15 -.464E-03 0.232E-03
   0.296E-14 0.117E+03 0.100E+03   -.700E-14 -.113E+03 -.106E+03   0.000E+00 -.447E+01 0.493E+01   0.297E-15 0.103E-03 -.663E-03
   -.155E-13 0.117E+03 -.100E+03   -.510E-14 -.113E+03 0.106E+03   0.000E+00 -.447E+01 -.493E+01   0.362E-15 0.103E-03 0.663E-03
   -.162E-13 -.754E+02 -.334E+03   0.477E-14 0.704E+02 0.340E+03   0.000E+00 0.511E+01 -.562E+01   -.605E-15 -.356E-03 0.572E-03
   0.167E-14 -.894E+02 -.120E+03   0.874E-14 0.845E+02 0.115E+03   0.000E+00 0.505E+01 0.447E+01   -.675E-15 -.239E-03 0.549E-03
   -.144E-13 -.434E+03 0.903E+02   -.262E-14 0.439E+03 -.956E+02   0.000E+00 -.478E+01 0.503E+01   -.251E-14 0.170E-04 -.319E-03
   0.118E-14 -.434E+03 -.903E+02   -.345E-14 0.439E+03 0.956E+02   0.000E+00 -.478E+01 -.503E+01   0.137E-14 0.170E-04 0.319E-03
   -.449E-16 0.105E+03 -.340E+03   -.541E-14 -.101E+03 0.338E+03   0.000E+00 -.388E+01 0.379E+01   0.817E-15 0.194E-03 0.463E-03
   -.139E-13 0.119E+03 -.513E+03   -.582E-14 -.119E+03 0.519E+03   0.000E+00 -.651E+00 -.696E+01   -.640E-15 0.790E-04 0.379E-03
   -.156E-13 -.357E+03 -.275E+03   -.230E-14 0.361E+03 0.273E+03   0.000E+00 -.391E+01 0.367E+01   -.167E-14 -.385E-03 0.432E-03
   0.225E-15 -.251E+03 -.447E+03   -.394E-14 0.252E+03 0.453E+03   0.000E+00 -.607E+00 -.697E+01   0.875E-15 -.363E-03 0.419E-03
 -----------------------------------------------------------------------------------------------
   -.145E-12 -.475E+01 0.148E-04   -.164E-13 0.256E-12 0.341E-12   0.000E+00 0.476E+01 -.888E-15   -.270E-14 -.317E-02 -.419E-12
 
 
 POSITION                                       TOTAL-FORCE (eV/Angst)
 -----------------------------------------------------------------------------------
      0.00000     10.00000     14.02014         0.000000      0.077840      0.007366
      1.67144     10.00000     12.54211         0.000000     -0.020578      0.048208
      0.00000     12.14332     10.35469         0.000000      0.028515      1.243101
      1.67144     12.14332     11.83272         0.000000      0.013144     -1.240447
      1.67144     15.22955     14.02014         0.000000      0.079189      0.068698
      0.00000     15.22955     12.54211         0.000000      0.044646      0.048056
      1.67144     17.37286     10.35469         0.000000      0.104224      1.330509
      0.00000     17.37286     11.83272         0.000000     -0.061253     -1.375864
      0.00000     10.00000     18.39497         0.000000     -0.020578     -0.048208
      1.67144     10.00000     16.91694         0.000000      0.077840     -0.007366
      0.00000     12.14332     14.72952         0.000000     -0.101985     -0.197404
      1.67144     12.14332     16.20755         0.000000     -0.101985      0.197404
      1.67144     15.22955     18.39497         0.000000      0.044646     -0.048056
      0.00000     15.22955     16.91694         0.000000      0.079189     -0.068698
      1.67144     17.37286     14.72952         0.000000     -0.163742     -0.159732
      0.00000     17.37286     16.20755         0.000000     -0.163742      0.159732
      0.00000     12.14332     19.10436         0.000000      0.013144      1.240447
      1.67144     12.14332     20.58238         0.000000      0.028515     -1.243101
      1.67144     17.37286     19.10436         0.000000     -0.061253      1.375864
      0.00000     17.37286     20.58238         0.000000      0.104224     -1.330509
 -----------------------------------------------------------------------------------
    total drift:                               -0.000000      0.002071      0.000015


--------------------------------------------------------------------------------------------------------



  FREE ENERGIE OF THE ION-ELECTRON SYSTEM (eV)
  ---------------------------------------------------
  free  energy   TOTEN  =      -106.44933516 eV

  energy  without entropy=     -106.44693309  energy(sigma->0) =     -106.44813412
 


--------------------------------------------------------------------------------------------------------


    POTLOK:  cpu time    0.1167: real time    0.1170


--------------------------------------------------------------------------------------------------------


     LOOP+:  cpu time   38.3296: real time   38.5404
    4ORBIT:  cpu time    0.0000: real time    0.0000
 


 total charge     
 
# of ion       s       p       d       tot
------------------------------------------
    1        1.081   1.380   0.000   2.461
    2        1.092   1.359   0.000   2.451
    3        1.105   1.327   0.000   2.432
    4        1.070   1.361   0.000   2.431
    5        1.081   1.377   0.000   2.458
    6        1.099   1.349   0.000   2.448
    7        1.105   1.326   0.000   2.431
    8        1.070   1.360   0.000   2.430
    9        1.092   1.359   0.000   2.451
   10        1.081   1.380   0.000   2.461
   11        1.083   1.364   0.000   2.447
   12        1.083   1.364   0.000   2.447
   13        1.099   1.349   0.000   2.448
   14        1.081   1.377   0.000   2.458
   15        1.082   1.372   0.000   2.454
   16        1.082   1.372   0.000   2.454
   17        1.070   1.361   0.000   2.431
   18        1.105   1.327   0.000   2.432
   19        1.070   1.360   0.000   2.430
   20        1.105   1.326   0.000   2.431
--------------------------------------------------
tot         21.737  27.152   0.000  48.889
 

 total amount of memory used by VASP MPI-rank0    45988. kBytes
=======================================================================

   base      :      30000. kBytes
   nonl-proj :       2693. kBytes
   fftplans  :       3282. kBytes
   grid      :       4588. kBytes
   one-center:          9. kBytes
   wavefun   :       5416. kBytes
 
  
  
 General timing and accounting informations for this job:
 ========================================================
  
                  Total CPU time used (sec):       52.711
                            User time (sec):       42.586
                          System time (sec):       10.125
                         Elapsed time (sec):       53.305
  
                   Maximum memory used (kb):      123028.
                   Average memory used (kb):           0.
  
                          Minor page faults:        55737
                          Major page faults:           25
                 Voluntary context switches:         5754
