PROCAR lm decomposed
# of k-points:    5         # of bands:   64         # of ions:   20

 k-point     1 :    0.00000000 0.00000000 0.00000000     weight = 0.12500000

band     1 # energy  -18.71873212 # occ.  2.00000000
 
ion      s     py     pz     px    dxy    dyz    dz2    dxz  x2-y2    tot
    1  0.038  0.002  0.000  0.000  0.000  0.000  0.000  0.000  0.000  0.040
    2  0.022  0.001  0.001  0.000  0.000  0.000  0.000  0.000  0.000  0.024
    3  0.002  0.000  0.000  0.000  0.000  0.000  0.000  0.000  0.000  0.002
    4  0.008  0.000  0.000  0.000  0.000  0.000  0.000  0.000  0.000  0.009
    5  0.035  0.001  0.000  0.000  0.000  0.000  0.000  0.000  0.000  0.036
    6  0.021  0.000  0.001  0.000  0.000  0.000  0.000  0.000  0.000  0.023
    7  0.001  0.000  0.000  0.000  0.000  0.000  0.000  0.000  0.000  0.002
    8  0.006  0.000  0.000  0.000  0.000  0.000  0.000  0.000  0.000  0.006
    9  0.022  0.001  0.001  0.000  0.000  0.000  0.000  0.000  0.000  0.024
   10  0.038  0.002  0.000  0.000  0.000  0.000  0.000  0.000  0.000  0.040
   11  0.069  0.001  0.002  0.000  0.000  0.000  0.000  0.000  0.000  0.072
   12  0.069  0.001  0.002  0.000  0.000  0.000  0.000  0.000  0.000  0.072
   13  0.021  0.000  0.001  0.000  0.000  0.000  0.000  0.000  0.000  0.023
   14  0.035  0.001  0.000  0.000  0.000  0.000  0.000  0.000  0.000  0.036
   15  0.043  0.001  0.001  0.000  0.000  0.000  0.000  0.000  0.000  0.045
   16  0.043  0.001  0.001  0.000  0.000  0.000  0.000  0.000  0.000  0.045
   17  0.008  0.000  0.000  0.000  0.000  0.000  0.000  0.000  0.000  0.009
   18  0.002  0.000  0.000  0.000  0.000  0.000  0.000  0.000  0.000  0.002
   19  0.006  0.000  0.000  0.000  0.000  0.000  0.000  0.000  0.000  0.006
   20  0.001  0.000  0.000  0.000  0.000  0.000  0.000  0.000  0.000  0.002
tot    0.491  0.014  0.012  0.000  0.000  0.000  0.000  0.000  0.000  0.517
 
band     2 # energy  -18.59401274 # occ.  2.00000000
 
ion      s     py     pz     px    dxy    dyz    dz2    dxz  x2-y2    tot
    1  0.033  0.001  0.000  0.000  0.000  0.000  0.000  0.000  0.000  0.035
    2  0.020  0.000  0.001  0.000  0.000  0.000  0.000  0.000  0.000  0.021
    3  0.001  0.000  0.000  0.000  0.000  0.000  0.000  0.000  0.000  0.001
    4  0.005  0.000  0.000  0.000  0.000  0.000  0.000  0.000  0.000  0.006
    5  0.040  0.002  0.000  0.000  0.000  0.000  0.000  0.000  0.000  0.042
    6  0.024  0.001  0.001  0.000  0.000  0.000  0.000  0.000  0.000  0.026
    7  0.002  0.000  0.000  0.000  0.000  0.000  0.000  0.000  0.000  0.002
    8  0.008  0.001  0.000  0.000  0.000  0.000  0.000  0.000  0.000  0.009
    9  0.020  0.000  0.001  0.000  0.000  0.000  0.000  0.000  0.000  0.021
   10  0.033  0.001  0.000  0.000  0.000  0.000  0.000  0.000  0.000  0.035
   11  0.047  0.002  0.001  0.000  0.000  0.000  0.000  0.000  0.000  0.050
   12  0.047  0.002  0.001  0.000  0.000  0.000  0.000  0.000  0.000  0.050
   13  0.024  0.001  0.001  0.000  0.000  0.000  0.000  0.000  0.000  0.026
   14  0.040  0.002  0.000  0.000  0.000  0.000  0.000  0.000  0.000  0.042
   15  0.066  0.002  0.002  0.000  0.000  0.000  0.000  0.000  0.000  0.069
   16  0.066  0.002  0.002  0.000  0.000  0.000  0.000  0.000  0.000  0.069
   17  0.005  0.000  0.000  0.000  0.000  0.000  0.000  0.000  0.000  0.006
   18  0.001  0.000  0.000  0.000  0.000  0.000  0.000  0.000  0.000  0.001
   19  0.008  0.001  0.000  0.000  0.000  0.000  0.000  0.000  0.000  0.009
   20  0.002  0.000  0.000  0.000  0.000  0.000  0.000  0.000  0.000  0.002
tot    0.494  0.018  0.012  0.000  0.000  0.000  0.000  0.000  0.000  0.524
 
band     3 # energy  -17.98274855 # occ.  2.00000000
 
ion      s     py     pz     px    dxy    dyz    dz2    dxz  x2-y2    tot
    1  0.026  0.000  0.002  0.000  0.000  0.000  0.000  0.000  0.000  0.028
    2  0.035  0.001  0.001  0.000  0.000  0.000  0.000  0.000  0.000  0.036
    3  0.008  0.000  0.001  0.000  0.000  0.000  0.000  0.000  0.000  0.009
    4  0.023  0.001  0.000  0.000  0.000  0.000  0.000  0.000  0.000  0.024
    5  0.047  0.000  0.003  0.000  0.000  0.000  0.000  0.000  0.000  0.051
    6  0.063  0.001  0.002  0.000  0.000  0.000  0.000  0.000  0.000  0.065
    7  0.010  0.000  0.001  0.000  0.000  0.000  0.000  0.000  0.000  0.011
    8  0.030  0.002  0.000  0.000  0.000  0.000  0.000  0.000  0.000  0.031
    9  0.035  0.001  0.001  0.000  0.000  0.000  0.000  0.000  0.000  0.036
   10  0.026  0.000  0.002  0.000  0.000  0.000  0.000  0.000  0.000  0.028
   11  0.003  0.000  0.001  0.000  0.000  0.000  0.000  0.000  0.000  0.004
   12  0.003  0.000  0.001  0.000  0.000  0.000  0.000  0.000  0.000  0.004
   13  0.063  0.001  0.002  0.000  0.000  0.000  0.000  0.000  0.000  0.065
   14  0.047  0.000  0.003  0.000  0.000  0.000  0.000  0.000  0.000  0.051
   15  0.004  0.001  0.001  0.000  0.000  0.000  0.000  0.000  0.000  0.005
   16  0.004  0.001  0.001  0.000  0.000  0.000  0.000  0.000  0.000  0.005
   17  0.023  0.001  0.000  0.000  0.000  0.000  0.000  0.000  0.000  0.024
   18  0.008  0.000  0.001  0.000  0.000  0.000  0.000  0.000  0.000  0.009
   19  0.030  0.002  0.000  0.000  0.000  0.000  0.000  0.000  0.000  0.031
   20  0.010  0.000  0.001  0.000  0.000  0.000  0.000  0.000  0.000  0.011
tot    0.495  0.012  0.021  0.000  0.000  0.000  0.000  0.000  0.000  0.529
 
band     4 # energy  -17.88010480 # occ.  2.00000000
 
ion      s     py     pz     px    dxy    dyz    dz2    dxz  x2-y2    tot
    1  0.048  0.001  0.003  0.000  0.000  0.000  0.000  0.000  0.000  0.051
    2  0.063  0.001  0.002  0.000  0.000  0.000  0.000  0.000  0.000  0.066
    3  0.010  0.000  0.001  0.000  0.000  0.000  0.000  0.000  0.000  0.012
    4  0.030  0.002  0.000  0.000  0.000  0.000  0.000  0.000  0.000  0.032
    5  0.028  0.000  0.002  0.000  0.000  0.000  0.000  0.000  0.000  0.030
    6  0.036  0.001  0.001  0.000  0.000  0.000  0.000  0.000  0.000  0.038
    7  0.007  0.000  0.001  0.000  0.000  0.000  0.000  0.000  0.000  0.008
    8  0.021  0.001  0.000  0.000  0.000  0.000  0.000  0.000  0.000  0.022
    9  0.063  0.001  0.002  0.000  0.000  0.000  0.000  0.000  0.000  0.066
   10  0.048  0.001  0.003  0.000  0.000  0.000  0.000  0.000  0.000  0.051
   11  0.004  0.001  0.001  0.000  0.000  0.000  0.000  0.000  0.000  0.005
   12  0.004  0.001  0.001  0.000  0.000  0.000  0.000  0.000  0.000  0.005
   13  0.036  0.001  0.001  0.000  0.000  0.000  0.000  0.000  0.000  0.038
   14  0.028  0.000  0.002  0.000  0.000  0.000  0.000  0.000  0.000  0.030
   15  0.002  0.000  0.000  0.000  0.000  0.000  0.000  0.000  0.000  0.003
   16  0.002  0.000  0.000  0.000  0.000  0.000  0.000  0.000  0.000  0.003
   17  0.030  0.002  0.000  0.000  0.000  0.000  0.000  0.000  0.000  0.032
   18  0.010  0.000  0.001  0.000  0.000  0.000  0.000  0.000  0.000  0.012
   19  0.021  0.001  0.000  0.000  0.000  0.000  0.000  0.000  0.000  0.022
   20  0.007  0.000  0.001  0.000  0.000  0.000  0.000  0.000  0.000  0.008
tot    0.498  0.015  0.022  0.000  0.000  0.000  0.000  0.000  0.000  0.535
 
band     5 # energy  -17.16790341 # occ.  2.00000000
 
ion      s     py     pz     px    dxy    dyz    dz2    dxz  x2-y2    tot
    1  0.002  0.001  0.003  0.000  0.000  0.000  0.000  0.000  0.000  0.006
    2  0.034  0.002  0.000  0.000  0.000  0.000  0.000  0.000  0.000  0.035
    3  0.036  0.000  0.003  0.000  0.000  0.000  0.000  0.000  0.000  0.040
    4  0.065  0.001  0.001  0.000  0.000  0.000  0.000  0.000  0.000  0.068
    5  0.000  0.000  0.001  0.000  0.000  0.000  0.000  0.000  0.000  0.001
    6  0.008  0.000  0.000  0.000  0.000  0.000  0.000  0.000  0.000  0.008
    7  0.007  0.000  0.001  0.000  0.000  0.000  0.000  0.000  0.000  0.008
    8  0.013  0.000  0.000  0.000  0.000  0.000  0.000  0.000  0.000  0.014
    9  0.034  0.002  0.000  0.000  0.000  0.000  0.000  0.000  0.000  0.035
   10  0.002  0.001  0.003  0.000  0.000  0.000  0.000  0.000  0.000  0.006
   11  0.073  0.000  0.006  0.000  0.000  0.000  0.000  0.000  0.000  0.079
   12  0.073  0.000  0.006  0.000  0.000  0.000  0.000  0.000  0.000  0.079
   13  0.008  0.000  0.000  0.000  0.000  0.000  0.000  0.000  0.000  0.008
   14  0.000  0.000  0.001  0.000  0.000  0.000  0.000  0.000  0.000  0.001
   15  0.014  0.000  0.001  0.000  0.000  0.000  0.000  0.000  0.000  0.015
   16  0.014  0.000  0.001  0.000  0.000  0.000  0.000  0.000  0.000  0.015
   17  0.065  0.001  0.001  0.000  0.000  0.000  0.000  0.000  0.000  0.068
   18  0.036  0.000  0.003  0.000  0.000  0.000  0.000  0.000  0.000  0.040
   19  0.013  0.000  0.000  0.000  0.000  0.000  0.000  0.000  0.000  0.014
   20  0.007  0.000  0.001  0.000  0.000  0.000  0.000  0.000  0.000  0.008
tot    0.505  0.009  0.034  0.000  0.000  0.000  0.000  0.000  0.000  0.547
 
band     6 # energy  -17.13000871 # occ.  2.00000000
 
ion      s     py     pz     px    dxy    dyz    dz2    dxz  x2-y2    tot
    1  0.002  0.000  0.001  0.000  0.000  0.000  0.000  0.000  0.000  0.003
    2  0.010  0.000  0.000  0.000  0.000  0.000  0.000  0.000  0.000  0.010
    3  0.006  0.000  0.001  0.000  0.000  0.000  0.000  0.000  0.000  0.006
    4  0.010  0.000  0.000  0.000  0.000  0.000  0.000  0.000  0.000  0.011
    5  0.002  0.001  0.003  0.000  0.000  0.000  0.000  0.000  0.000  0.007
    6  0.033  0.001  0.000  0.000  0.000  0.000  0.000  0.000  0.000  0.035
    7  0.034  0.000  0.003  0.000  0.000  0.000  0.000  0.000  0.000  0.037
    8  0.060  0.001  0.001  0.000  0.000  0.000  0.000  0.000  0.000  0.063
    9  0.010  0.000  0.000  0.000  0.000  0.000  0.000  0.000  0.000  0.010
   10  0.002  0.000  0.001  0.000  0.000  0.000  0.000  0.000  0.000  0.003
   11  0.016  0.000  0.001  0.000  0.000  0.000  0.000  0.000  0.000  0.017
   12  0.016  0.000  0.001  0.000  0.000  0.000  0.000  0.000  0.000  0.017
   13  0.033  0.001  0.000  0.000  0.000  0.000  0.000  0.000  0.000  0.035
   14  0.002  0.001  0.003  0.000  0.000  0.000  0.000  0.000  0.000  0.007
   15  0.080  0.000  0.007  0.000  0.000  0.000  0.000  0.000  0.000  0.087
   16  0.080  0.000  0.007  0.000  0.000  0.000  0.000  0.000  0.000  0.087
   17  0.010  0.000  0.000  0.000  0.000  0.000  0.000  0.000  0.000  0.011
   18  0.006  0.000  0.001  0.000  0.000  0.000  0.000  0.000  0.000  0.006
   19  0.060  0.001  0.001  0.000  0.000  0.000  0.000  0.000  0.000  0.063
   20  0.034  0.000  0.003  0.000  0.000  0.000  0.000  0.000  0.000  0.037
tot    0.506  0.010  0.034  0.000  0.000  0.000  0.000  0.000  0.000  0.550
 
band     7 # energy  -16.37128098 # occ.  2.00000000
 
ion      s     py     pz     px    dxy    dyz    dz2    dxz  x2-y2    tot
    1  0.026  0.000  0.001  0.000  0.000  0.000  0.000  0.000  0.000  0.027
    2  0.010  0.000  0.003  0.000  0.000  0.000  0.000  0.000  0.000  0.013
    3  0.038  0.000  0.003  0.000  0.000  0.000  0.000  0.000  0.000  0.041
    4  0.040  0.000  0.003  0.000  0.000  0.000  0.000  0.000  0.000  0.043
    5  0.025  0.000  0.001  0.000  0.000  0.000  0.000  0.000  0.000  0.026
    6  0.008  0.001  0.003  0.000  0.000  0.000  0.000  0.000  0.000  0.012
    7  0.051  0.000  0.003  0.000  0.000  0.000  0.000  0.000  0.000  0.054
    8  0.054  0.000  0.004  0.000  0.000  0.000  0.000  0.000  0.000  0.058
    9  0.010  0.000  0.003  0.000  0.000  0.000  0.000  0.000  0.000  0.013
   10  0.026  0.000  0.001  0.000  0.000  0.000  0.000  0.000  0.000  0.027
   11  0.001  0.001  0.000  0.000  0.000  0.000  0.000  0.000  0.000  0.002
   12  0.001  0.001  0.000  0.000  0.000  0.000  0.000  0.000  0.000  0.002
   13  0.008  0.001  0.003  0.000  0.000  0.000  0.000  0.000  0.000  0.012
   14  0.025  0.000  0.001  0.000  0.000  0.000  0.000  0.000  0.000  0.026
   15  0.001  0.000  0.000  0.000  0.000  0.000  0.000  0.000  0.000  0.002
   16  0.001  0.000  0.000  0.000  0.000  0.000  0.000  0.000  0.000  0.002
   17  0.040  0.000  0.003  0.000  0.000  0.000  0.000  0.000  0.000  0.043
   18  0.038  0.000  0.003  0.000  0.000  0.000  0.000  0.000  0.000  0.041
   19  0.054  0.000  0.004  0.000  0.000  0.000  0.000  0.000  0.000  0.058
   20  0.051  0.000  0.003  0.000  0.000  0.000  0.000  0.000  0.000  0.054
tot    0.509  0.005  0.040  0.000  0.000  0.000  0.000  0.000  0.000  0.555
 
band     8 # energy  -16.29479295 # occ.  2.00000000
 
ion      s     py     pz     px    dxy    dyz    dz2    dxz  x2-y2    tot
    1  0.029  0.000  0.001  0.000  0.000  0.000  0.000  0.000  0.000  0.030
    2  0.008  0.001  0.003  0.000  0.000  0.000  0.000  0.000  0.000  0.012
    3  0.050  0.000  0.003  0.000  0.000  0.000  0.000  0.000  0.000  0.054
    4  0.050  0.000  0.004  0.000  0.000  0.000  0.000  0.000  0.000  0.055
    5  0.028  0.000  0.001  0.000  0.000  0.000  0.000  0.000  0.000  0.029
    6  0.008  0.000  0.003  0.000  0.000  0.000  0.000  0.000  0.000  0.012
    7  0.039  0.000  0.003  0.000  0.000  0.000  0.000  0.000  0.000  0.042
    8  0.039  0.000  0.003  0.000  0.000  0.000  0.000  0.000  0.000  0.042
    9  0.008  0.001  0.003  0.000  0.000  0.000  0.000  0.000  0.000  0.012
   10  0.029  0.000  0.001  0.000  0.000  0.000  0.000  0.000  0.000  0.030
   11  0.002  0.000  0.000  0.000  0.000  0.000  0.000  0.000  0.000  0.003
   12  0.002  0.000  0.000  0.000  0.000  0.000  0.000  0.000  0.000  0.003
   13  0.008  0.000  0.003  0.000  0.000  0.000  0.000  0.000  0.000  0.012
   14  0.028  0.000  0.001  0.000  0.000  0.000  0.000  0.000  0.000  0.029
   15  0.002  0.001  0.000  0.000  0.000  0.000  0.000  0.000  0.000  0.003
   16  0.002  0.001  0.000  0.000  0.000  0.000  0.000  0.000  0.000  0.003
   17  0.050  0.000  0.004  0.000  0.000  0.000  0.000  0.000  0.000  0.055
   18  0.050  0.000  0.003  0.000  0.000  0.000  0.000  0.000  0.000  0.054
   19  0.039  0.000  0.003  0.000  0.000  0.000  0.000  0.000  0.000  0.042
   20  0.039  0.000  0.003  0.000  0.000  0.000  0.000  0.000  0.000  0.042
tot    0.512  0.005  0.043  0.000  0.000  0.000  0.000  0.000  0.000  0.560
 
band     9 # energy  -16.26988372 # occ.  2.00000000
 
ion      s     py     pz     px    dxy    dyz    dz2    dxz  x2-y2    tot
    1  0.031  0.000  0.002  0.000  0.000  0.000  0.000  0.000  0.000  0.032
    2  0.020  0.000  0.003  0.000  0.000  0.000  0.000  0.000  0.000  0.024
    3  0.028  0.000  0.002  0.000  0.000  0.000  0.000  0.000  0.000  0.030
    4  0.028  0.000  0.002  0.000  0.000  0.000  0.000  0.000  0.000  0.030
    5  0.026  0.000  0.002  0.000  0.000  0.000  0.000  0.000  0.000  0.028
    6  0.017  0.001  0.003  0.000  0.000  0.000  0.000  0.000  0.000  0.021
    7  0.033  0.000  0.002  0.000  0.000  0.000  0.000  0.000  0.000  0.035
    8  0.034  0.000  0.002  0.000  0.000  0.000  0.000  0.000  0.000  0.036
    9  0.020  0.000  0.003  0.000  0.000  0.000  0.000  0.000  0.000  0.024
   10  0.031  0.000  0.002  0.000  0.000  0.000  0.000  0.000  0.000  0.032
   11  0.015  0.001  0.002  0.000  0.000  0.000  0.000  0.000  0.000  0.017
   12  0.015  0.001  0.002  0.000  0.000  0.000  0.000  0.000  0.000  0.017
   13  0.017  0.001  0.003  0.000  0.000  0.000  0.000  0.000  0.000  0.021
   14  0.026  0.000  0.002  0.000  0.000  0.000  0.000  0.000  0.000  0.028
   15  0.019  0.000  0.002  0.000  0.000  0.000  0.000  0.000  0.000  0.021
   16  0.019  0.000  0.002  0.000  0.000  0.000  0.000  0.000  0.000  0.021
   17  0.028  0.000  0.002  0.000  0.000  0.000  0.000  0.000  0.000  0.030
   18  0.028  0.000  0.002  0.000  0.000  0.000  0.000  0.000  0.000  0.030
   19  0.034  0.000  0.002  0.000  0.000  0.000  0.000  0.000  0.000  0.036
   20  0.033  0.000  0.002  0.000  0.000  0.000  0.000  0.000  0.000  0.035
tot    0.501  0.006  0.041  0.000  0.000  0.000  0.000  0.000  0.000  0.549
 
band    10 # energy  -16.04551980 # occ.  2.00000000
 
ion      s     py     pz     px    dxy    dyz    dz2    dxz  x2-y2    tot
    1  0.028  0.000  0.002  0.000  0.000  0.000  0.000  0.000  0.000  0.030
    2  0.022  0.000  0.003  0.000  0.000  0.000  0.000  0.000  0.000  0.025
    3  0.032  0.000  0.002  0.000  0.000  0.000  0.000  0.000  0.000  0.033
    4  0.027  0.000  0.003  0.000  0.000  0.000  0.000  0.000  0.000  0.030
    5  0.030  0.000  0.002  0.000  0.000  0.000  0.000  0.000  0.000  0.033
    6  0.024  0.000  0.003  0.000  0.000  0.000  0.000  0.000  0.000  0.028
    7  0.027  0.000  0.002  0.000  0.000  0.000  0.000  0.000  0.000  0.029
    8  0.023  0.000  0.002  0.000  0.000  0.000  0.000  0.000  0.000  0.025
    9  0.022  0.000  0.003  0.000  0.000  0.000  0.000  0.000  0.000  0.025
   10  0.028  0.000  0.002  0.000  0.000  0.000  0.000  0.000  0.000  0.030
   11  0.023  0.000  0.003  0.000  0.000  0.000  0.000  0.000  0.000  0.026
   12  0.023  0.000  0.003  0.000  0.000  0.000  0.000  0.000  0.000  0.026
   13  0.024  0.000  0.003  0.000  0.000  0.000  0.000  0.000  0.000  0.028
   14  0.030  0.000  0.002  0.000  0.000  0.000  0.000  0.000  0.000  0.033
   15  0.021  0.001  0.002  0.000  0.000  0.000  0.000  0.000  0.000  0.024
   16  0.021  0.001  0.002  0.000  0.000  0.000  0.000  0.000  0.000  0.024
   17  0.027  0.000  0.003  0.000  0.000  0.000  0.000  0.000  0.000  0.030
   18  0.032  0.000  0.002  0.000  0.000  0.000  0.000  0.000  0.000  0.033
   19  0.023  0.000  0.002  0.000  0.000  0.000  0.000  0.000  0.000  0.025
   20  0.027  0.000  0.002  0.000  0.000  0.000  0.000  0.000  0.000  0.029
tot    0.513  0.004  0.048  0.000  0.000  0.000  0.000  0.000  0.000  0.565
 
band    11 # energy  -12.81586950 # occ.  2.00000000
 
ion      s     py     pz     px    dxy    dyz    dz2    dxz  x2-y2    tot
    1  0.012  0.010  0.006  0.000  0.000  0.000  0.000  0.000  0.000  0.027
    2  0.045  0.000  0.001  0.000  0.000  0.000  0.000  0.000  0.000  0.046
    3  0.001  0.000  0.000  0.000  0.000  0.000  0.000  0.000  0.000  0.001
    4  0.000  0.004  0.000  0.000  0.000  0.000  0.000  0.000  0.000  0.004
    5  0.007  0.009  0.003  0.000  0.000  0.000  0.000  0.000  0.000  0.019
    6  0.023  0.000  0.000  0.000  0.000  0.000  0.000  0.000  0.000  0.024
    7  0.000  0.000  0.000  0.000  0.000  0.000  0.000  0.000  0.000  0.000
    8  0.000  0.001  0.000  0.000  0.000  0.000  0.000  0.000  0.000  0.001
    9  0.045  0.000  0.001  0.000  0.000  0.000  0.000  0.000  0.000  0.046
   10  0.012  0.010  0.006  0.000  0.000  0.000  0.000  0.000  0.000  0.027
   11  0.077  0.003  0.010  0.000  0.000  0.000  0.000  0.000  0.000  0.090
   12  0.077  0.003  0.010  0.000  0.000  0.000  0.000  0.000  0.000  0.090
   13  0.023  0.000  0.000  0.000  0.000  0.000  0.000  0.000  0.000  0.024
   14  0.007  0.009  0.003  0.000  0.000  0.000  0.000  0.000  0.000  0.019
   15  0.049  0.003  0.006  0.000  0.000  0.000  0.000  0.000  0.000  0.058
   16  0.049  0.003  0.006  0.000  0.000  0.000  0.000  0.000  0.000  0.058
   17  0.000  0.004  0.000  0.000  0.000  0.000  0.000  0.000  0.000  0.004
   18  0.001  0.000  0.000  0.000  0.000  0.000  0.000  0.000  0.000  0.001
   19  0.000  0.001  0.000  0.000  0.000  0.000  0.000  0.000  0.000  0.001
   20  0.000  0.000  0.000  0.000  0.000  0.000  0.000  0.000  0.000  0.000
tot    0.431  0.060  0.052  0.000  0.000  0.000  0.000  0.000  0.000  0.542
 
band    12 # energy  -12.67814507 # occ.  2.00000000
 
ion      s     py     pz     px    dxy    dyz    dz2    dxz  x2-y2    tot
    1  0.007  0.006  0.004  0.000  0.000  0.000  0.000  0.000  0.000  0.018
    2  0.029  0.000  0.000  0.000  0.000  0.000  0.000  0.000  0.000  0.029
    3  0.003  0.000  0.000  0.000  0.000  0.000  0.000  0.000  0.000  0.003
    4  0.000  0.001  0.000  0.000  0.000  0.000  0.000  0.000  0.000  0.001
    5  0.016  0.008  0.007  0.000  0.000  0.000  0.000  0.000  0.000  0.030
    6  0.053  0.000  0.001  0.000  0.000  0.000  0.000  0.000  0.000  0.054
    7  0.005  0.000  0.000  0.000  0.000  0.000  0.000  0.000  0.000  0.005
    8  0.000  0.004  0.000  0.000  0.000  0.000  0.000  0.000  0.000  0.004
    9  0.029  0.000  0.000  0.000  0.000  0.000  0.000  0.000  0.000  0.029
   10  0.007  0.006  0.004  0.000  0.000  0.000  0.000  0.000  0.000  0.018
   11  0.047  0.002  0.006  0.000  0.000  0.000  0.000  0.000  0.000  0.054
   12  0.047  0.002  0.006  0.000  0.000  0.000  0.000  0.000  0.000  0.054
   13  0.053  0.000  0.001  0.000  0.000  0.000  0.000  0.000  0.000  0.054
   14  0.016  0.008  0.007  0.000  0.000  0.000  0.000  0.000  0.000  0.030
   15  0.070  0.004  0.008  0.000  0.000  0.000  0.000  0.000  0.000  0.082
   16  0.070  0.004  0.008  0.000  0.000  0.000  0.000  0.000  0.000  0.082
   17  0.000  0.001  0.000  0.000  0.000  0.000  0.000  0.000  0.000  0.001
   18  0.003  0.000  0.000  0.000  0.000  0.000  0.000  0.000  0.000  0.003
   19  0.000  0.004  0.000  0.000  0.000  0.000  0.000  0.000  0.000  0.004
   20  0.005  0.000  0.000  0.000  0.000  0.000  0.000  0.000  0.000  0.005
tot    0.461  0.051  0.052  0.000  0.000  0.000  0.000  0.000  0.000  0.564
 
band    13 # energy  -12.53450086 # occ.  2.00000000
 
ion      s     py     pz     px    dxy    dyz    dz2    dxz  x2-y2    tot
    1  0.031  0.000  0.006  0.000  0.000  0.000  0.000  0.000  0.000  0.038
    2  0.030  0.002  0.003  0.000  0.000  0.000  0.000  0.000  0.000  0.034
    3  0.018  0.000  0.000  0.000  0.000  0.000  0.000  0.000  0.000  0.019
    4  0.002  0.005  0.004  0.000  0.000  0.000  0.000  0.000  0.000  0.011
    5  0.038  0.000  0.007  0.000  0.000  0.000  0.000  0.000  0.000  0.046
    6  0.036  0.003  0.004  0.000  0.000  0.000  0.000  0.000  0.000  0.042
    7  0.027  0.000  0.000  0.000  0.000  0.000  0.000  0.000  0.000  0.028
    8  0.003  0.005  0.006  0.000  0.000  0.000  0.000  0.000  0.000  0.014
    9  0.030  0.002  0.003  0.000  0.000  0.000  0.000  0.000  0.000  0.034
   10  0.031  0.000  0.006  0.000  0.000  0.000  0.000  0.000  0.000  0.038
   11  0.002  0.010  0.001  0.000  0.000  0.000  0.000  0.000  0.000  0.013
   12  0.002  0.010  0.001  0.000  0.000  0.000  0.000  0.000  0.000  0.013
   13  0.036  0.003  0.004  0.000  0.000  0.000  0.000  0.000  0.000  0.042
   14  0.038  0.000  0.007  0.000  0.000  0.000  0.000  0.000  0.000  0.046
   15  0.004  0.006  0.001  0.000  0.000  0.000  0.000  0.000  0.000  0.011
   16  0.004  0.006  0.001  0.000  0.000  0.000  0.000  0.000  0.000  0.011
   17  0.002  0.005  0.004  0.000  0.000  0.000  0.000  0.000  0.000  0.011
   18  0.018  0.000  0.000  0.000  0.000  0.000  0.000  0.000  0.000  0.019
   19  0.003  0.005  0.006  0.000  0.000  0.000  0.000  0.000  0.000  0.014
   20  0.027  0.000  0.000  0.000  0.000  0.000  0.000  0.000  0.000  0.028
tot    0.385  0.063  0.062  0.000  0.000  0.000  0.000  0.000  0.000  0.510
 
band    14 # energy  -12.28470053 # occ.  2.00000000
 
ion      s     py     pz     px    dxy    dyz    dz2    dxz  x2-y2    tot
    1  0.041  0.000  0.006  0.000  0.000  0.000  0.000  0.000  0.000  0.047
    2  0.031  0.003  0.004  0.000  0.000  0.000  0.000  0.000  0.000  0.038
    3  0.033  0.000  0.000  0.000  0.000  0.000  0.000  0.000  0.000  0.033
    4  0.005  0.005  0.007  0.000  0.000  0.000  0.000  0.000  0.000  0.016
    5  0.035  0.000  0.005  0.000  0.000  0.000  0.000  0.000  0.000  0.040
    6  0.025  0.002  0.003  0.000  0.000  0.000  0.000  0.000  0.000  0.031
    7  0.023  0.000  0.000  0.000  0.000  0.000  0.000  0.000  0.000  0.023
    8  0.004  0.004  0.005  0.000  0.000  0.000  0.000  0.000  0.000  0.013
    9  0.031  0.003  0.004  0.000  0.000  0.000  0.000  0.000  0.000  0.038
   10  0.041  0.000  0.006  0.000  0.000  0.000  0.000  0.000  0.000  0.047
   11  0.005  0.005  0.001  0.000  0.000  0.000  0.000  0.000  0.000  0.012
   12  0.005  0.005  0.001  0.000  0.000  0.000  0.000  0.000  0.000  0.012
   13  0.025  0.002  0.003  0.000  0.000  0.000  0.000  0.000  0.000  0.031
   14  0.035  0.000  0.005  0.000  0.000  0.000  0.000  0.000  0.000  0.040
   15  0.004  0.007  0.001  0.000  0.000  0.000  0.000  0.000  0.000  0.012
   16  0.004  0.007  0.001  0.000  0.000  0.000  0.000  0.000  0.000  0.012
   17  0.005  0.005  0.007  0.000  0.000  0.000  0.000  0.000  0.000  0.016
   18  0.033  0.000  0.000  0.000  0.000  0.000  0.000  0.000  0.000  0.033
   19  0.004  0.004  0.005  0.000  0.000  0.000  0.000  0.000  0.000  0.013
   20  0.023  0.000  0.000  0.000  0.000  0.000  0.000  0.000  0.000  0.023
tot    0.412  0.056  0.064  0.000  0.000  0.000  0.000  0.000  0.000  0.532
 
band    15 # energy  -11.74806128 # occ.  2.00000000
 
ion      s     py     pz     px    dxy    dyz    dz2    dxz  x2-y2    tot
    1  0.028  0.001  0.000  0.000  0.000  0.000  0.000  0.000  0.000  0.029
    2  0.006  0.007  0.005  0.000  0.000  0.000  0.000  0.000  0.000  0.019
    3  0.047  0.000  0.000  0.000  0.000  0.000  0.000  0.000  0.000  0.047
    4  0.017  0.004  0.011  0.000  0.000  0.000  0.000  0.000  0.000  0.032
    5  0.022  0.003  0.000  0.000  0.000  0.000  0.000  0.000  0.000  0.025
    6  0.004  0.010  0.005  0.000  0.000  0.000  0.000  0.000  0.000  0.019
    7  0.044  0.000  0.000  0.000  0.000  0.000  0.000  0.000  0.000  0.044
    8  0.016  0.004  0.011  0.000  0.000  0.000  0.000  0.000  0.000  0.031
    9  0.006  0.007  0.005  0.000  0.000  0.000  0.000  0.000  0.000  0.019
   10  0.028  0.001  0.000  0.000  0.000  0.000  0.000  0.000  0.000  0.029
   11  0.004  0.001  0.001  0.000  0.000  0.000  0.000  0.000  0.000  0.006
   12  0.004  0.001  0.001  0.000  0.000  0.000  0.000  0.000  0.000  0.006
   13  0.004  0.010  0.005  0.000  0.000  0.000  0.000  0.000  0.000  0.019
   14  0.022  0.003  0.000  0.000  0.000  0.000  0.000  0.000  0.000  0.025
   15  0.007  0.000  0.002  0.000  0.000  0.000  0.000  0.000  0.000  0.009
   16  0.007  0.000  0.002  0.000  0.000  0.000  0.000  0.000  0.000  0.009
   17  0.017  0.004  0.011  0.000  0.000  0.000  0.000  0.000  0.000  0.032
   18  0.047  0.000  0.000  0.000  0.000  0.000  0.000  0.000  0.000  0.047
   19  0.016  0.004  0.011  0.000  0.000  0.000  0.000  0.000  0.000  0.031
   20  0.044  0.000  0.000  0.000  0.000  0.000  0.000  0.000  0.000  0.044
tot    0.390  0.062  0.073  0.000  0.000  0.000  0.000  0.000  0.000  0.524
 
band    16 # energy  -11.53601236 # occ.  2.00000000
 
ion      s     py     pz     px    dxy    dyz    dz2    dxz  x2-y2    tot
    1  0.020  0.004  0.000  0.000  0.000  0.000  0.000  0.000  0.000  0.024
    2  0.001  0.010  0.005  0.000  0.000  0.000  0.000  0.000  0.000  0.016
    3  0.043  0.000  0.001  0.000  0.000  0.000  0.000  0.000  0.000  0.044
    4  0.019  0.004  0.011  0.000  0.000  0.000  0.000  0.000  0.000  0.034
    5  0.022  0.002  0.000  0.000  0.000  0.000  0.000  0.000  0.000  0.025
    6  0.001  0.008  0.005  0.000  0.000  0.000  0.000  0.000  0.000  0.014
    7  0.044  0.000  0.001  0.000  0.000  0.000  0.000  0.000  0.000  0.045
    8  0.020  0.003  0.011  0.000  0.000  0.000  0.000  0.000  0.000  0.035
    9  0.001  0.010  0.005  0.000  0.000  0.000  0.000  0.000  0.000  0.016
   10  0.020  0.004  0.000  0.000  0.000  0.000  0.000  0.000  0.000  0.024
   11  0.013  0.000  0.002  0.000  0.000  0.000  0.000  0.000  0.000  0.015
   12  0.013  0.000  0.002  0.000  0.000  0.000  0.000  0.000  0.000  0.015
   13  0.001  0.008  0.005  0.000  0.000  0.000  0.000  0.000  0.000  0.014
   14  0.022  0.002  0.000  0.000  0.000  0.000  0.000  0.000  0.000  0.025
   15  0.010  0.000  0.002  0.000  0.000  0.000  0.000  0.000  0.000  0.013
   16  0.010  0.000  0.002  0.000  0.000  0.000  0.000  0.000  0.000  0.013
   17  0.019  0.004  0.011  0.000  0.000  0.000  0.000  0.000  0.000  0.034
   18  0.043  0.000  0.001  0.000  0.000  0.000  0.000  0.000  0.000  0.044
   19  0.020  0.003  0.011  0.000  0.000  0.000  0.000  0.000  0.000  0.035
   20  0.044  0.000  0.001  0.000  0.000  0.000  0.000  0.000  0.000  0.045
tot    0.389  0.064  0.076  0.000  0.000  0.000  0.000  0.000  0.000  0.529
 
band    17 # energy  -10.81054495 # occ.  2.00000000
 
ion      s     py     pz     px    dxy    dyz    dz2    dxz  x2-y2    tot
    1  0.002  0.004  0.004  0.000  0.000  0.000  0.000  0.000  0.000  0.009
    2  0.012  0.005  0.000  0.000  0.000  0.000  0.000  0.000  0.000  0.017
    3  0.030  0.000  0.002  0.000  0.000  0.000  0.000  0.000  0.000  0.032
    4  0.023  0.001  0.007  0.000  0.000  0.000  0.000  0.000  0.000  0.031
    5  0.001  0.006  0.006  0.000  0.000  0.000  0.000  0.000  0.000  0.014
    6  0.013  0.014  0.000  0.000  0.000  0.000  0.000  0.000  0.000  0.027
    7  0.040  0.000  0.002  0.000  0.000  0.000  0.000  0.000  0.000  0.042
    8  0.034  0.000  0.010  0.000  0.000  0.000  0.000  0.000  0.000  0.044
    9  0.012  0.005  0.000  0.000  0.000  0.000  0.000  0.000  0.000  0.017
   10  0.002  0.004  0.004  0.000  0.000  0.000  0.000  0.000  0.000  0.009
   11  0.002  0.004  0.007  0.000  0.000  0.000  0.000  0.000  0.000  0.013
   12  0.002  0.004  0.007  0.000  0.000  0.000  0.000  0.000  0.000  0.013
   13  0.013  0.014  0.000  0.000  0.000  0.000  0.000  0.000  0.000  0.027
   14  0.001  0.006  0.006  0.000  0.000  0.000  0.000  0.000  0.000  0.014
   15  0.002  0.008  0.007  0.000  0.000  0.000  0.000  0.000  0.000  0.017
   16  0.002  0.008  0.007  0.000  0.000  0.000  0.000  0.000  0.000  0.017
   17  0.023  0.001  0.007  0.000  0.000  0.000  0.000  0.000  0.000  0.031
   18  0.030  0.000  0.002  0.000  0.000  0.000  0.000  0.000  0.000  0.032
   19  0.034  0.000  0.010  0.000  0.000  0.000  0.000  0.000  0.000  0.044
   20  0.040  0.000  0.002  0.000  0.000  0.000  0.000  0.000  0.000  0.042
tot    0.321  0.083  0.090  0.000  0.000  0.000  0.000  0.000  0.000  0.494
 
band    18 # energy  -10.59506746 # occ.  2.00000000
 
ion      s     py     pz     px    dxy    dyz    dz2    dxz  x2-y2    tot
    1  0.001  0.010  0.008  0.000  0.000  0.000  0.000  0.000  0.000  0.019
    2  0.017  0.013  0.000  0.000  0.000  0.000  0.000  0.000  0.000  0.030
    3  0.032  0.000  0.003  0.000  0.000  0.000  0.000  0.000  0.000  0.035
    4  0.033  0.001  0.007  0.000  0.000  0.000  0.000  0.000  0.000  0.042