 running on   32 total cores
 distrk:  each k-point on   32 cores,    1 groups
 distr:  one band on    8 cores,    4 groups
 using from now: INCAR     
 vasp.5.4.4.18Apr17-6-g9f103f2a35 (build Jun 20 2017 18:00:50) complex          
  
 POSCAR found type information on POSCAR  P 
 POSCAR found :  1 types and      20 ions
 scaLAPACK will be used

 ----------------------------------------------------------------------------- 
|                                                                             |
|  ADVICE TO THIS USER RUNNING 'VASP/VAMP'   (HEAR YOUR MASTER'S VOICE ...):  |
|                                                                             |
|      You have a (more or less) 'large supercell' and for larger cells       |
|      it might be more efficient to use real space projection opertators     |
|      So try LREAL= Auto  in the INCAR   file.                               |
|      Mind:          For very  accurate calculation you might also keep the  |
|      reciprocal projection scheme          (i.e. LREAL=.FALSE.)             |
|                                                                             |
 ----------------------------------------------------------------------------- 

 LDA part: xc-table for Pade appr. of Perdew
 POSCAR, INCAR and KPOINTS ok, starting setup
 FFT: planning ...
 WAVECAR not read
 WARNING: random wavefunctions but no delay for mixing, default for NELMDL
 entering main loop
       N       E                     dE             d eps       ncg     rms          rms(c)
DAV:   1     0.605349657313E+03    0.60535E+03   -0.22393E+04   776   0.662E+02
DAV:   2     0.121371314987E+02   -0.59321E+03   -0.55059E+03   928   0.159E+02
DAV:   3    -0.100021516788E+03   -0.11216E+03   -0.11045E+03   752   0.749E+01
DAV:   4    -0.104672403811E+03   -0.46509E+01   -0.45500E+01   792   0.194E+01
DAV:   5    -0.104873426088E+03   -0.20102E+00   -0.19986E+00   968   0.334E+00    0.218E+01
DAV:   6    -0.104142730183E+03    0.73070E+00   -0.90924E-01   840   0.359E+00    0.129E+01
DAV:   7    -0.104630709995E+03   -0.48798E+00   -0.72334E+00   816   0.611E+00    0.385E+00
DAV:   8    -0.103901181804E+03    0.72953E+00   -0.30419E+00   816   0.406E+00    0.120E+00
DAV:   9    -0.103889939169E+03    0.11243E-01   -0.20934E-01   824   0.147E+00    0.617E-01
DAV:  10    -0.103886398296E+03    0.35409E-02   -0.34972E-02   832   0.569E-01    0.496E-01
DAV:  11    -0.103885657219E+03    0.74108E-03   -0.46433E-03   808   0.236E-01    0.343E-01
DAV:  12    -0.103884495263E+03    0.11620E-02   -0.45112E-03   808   0.238E-01    0.111E-01
DAV:  13    -0.103884570717E+03   -0.75454E-04   -0.13361E-03   808   0.119E-01    0.101E-01
DAV:  14    -0.103884685129E+03   -0.11441E-03   -0.38916E-04   808   0.702E-02    0.643E-02
DAV:  15    -0.103884922949E+03   -0.23782E-03   -0.23361E-04   776   0.550E-02    0.430E-02
DAV:  16    -0.103885438844E+03   -0.51590E-03   -0.41022E-04   760   0.606E-02    0.383E-02
DAV:  17    -0.103885753952E+03   -0.31511E-03   -0.11481E-04   736   0.372E-02    0.183E-02
DAV:  18    -0.103886507741E+03   -0.75379E-03   -0.95976E-05   672   0.230E-02    0.153E-02
DAV:  19    -0.103886814403E+03   -0.30666E-03   -0.17659E-05   568   0.115E-02    0.155E-02
DAV:  20    -0.103886917051E+03   -0.10265E-03   -0.39724E-06   464   0.768E-03    0.780E-03
DAV:  21    -0.103887209813E+03   -0.29276E-03   -0.15378E-05   544   0.104E-02    0.627E-03
DAV:  22    -0.103887263749E+03   -0.53936E-04   -0.22245E-06   464   0.520E-03    0.224E-03
DAV:  23    -0.103887301007E+03   -0.37258E-04   -0.74560E-07   424   0.246E-03    0.134E-03
DAV:  24    -0.103887373463E+03   -0.72456E-04   -0.19326E-06   464   0.281E-03    0.209E-03
DAV:  25    -0.103887385037E+03   -0.11574E-04   -0.52796E-07   424   0.164E-03    0.101E-03
DAV:  26    -0.103887394578E+03   -0.95414E-05   -0.45747E-07   432   0.123E-03
   1 F= -.10644934E+03 E0= -.10644813E+03  d E =-.240207E-02
