Generic Input                           
           1
     3.342886    0.000000    0.000000
     0.000000   27.372864    0.000000
     0.000000    0.000000   30.937078
   P 
  20
Direct configuration=     1
   0.00000000  0.36532531  0.45318234
   0.50000000  0.36532531  0.40540705
   0.00000000  0.44362617  0.33470174
   0.50000000  0.44362617  0.38247704
   0.50000000  0.55637383  0.45318234
   0.00000000  0.55637383  0.40540705
   0.50000000  0.63467469  0.33470174
   0.00000000  0.63467469  0.38247704
   0.00000000  0.36532531  0.59459295
   0.50000000  0.36532531  0.54681766
   0.00000000  0.44362617  0.47611235
   0.50000000  0.44362617  0.52388765
   0.50000000  0.55637383  0.59459295
   0.00000000  0.55637383  0.54681766
   0.50000000  0.63467469  0.47611235
   0.00000000  0.63467469  0.52388765
   0.00000000  0.44362617  0.61752296
   0.50000000  0.44362617  0.66529826
   0.50000000  0.63467469  0.61752296
   0.00000000  0.63467469  0.66529826
