  12  12   1   0
  0.3973299E+02  0.3342886E-09  0.3260241E-08  0.4374831E-09  0.5000000E-15
  1.000000000000000E-004
  CAR 
 Generic Input                           
      5.85539037    -15.84026193 2000      0.94070156      1.00000000
    -15.840  0.0000E+00  0.0000E+00
    -15.829  0.0000E+00  0.0000E+00
    -15.819  0.0000E+00  0.0000E+00
    -15.808  0.0000E+00  0.0000E+00
    -15.797  0.0000E+00  0.0000E+00
    -15.786  0.0000E+00  0.0000E+00
    -15.775  0.0000E+00  0.0000E+00
    -15.764  0.0000E+00  0.0000E+00
    -15.753  0.0000E+00  0.0000E+00
    -15.743  0.0000E+00  0.0000E+00
    -15.732  0.0000E+00  0.0000E+00
    -15.721  0.0000E+00  0.0000E+00
    -15.710  0.0000E+00  0.0000E+00
    -15.699  0.0000E+00  0.0000E+00
    -15.688  0.0000E+00  0.0000E+00
    -15.677  0.0000E+00  0.0000E+00
    -15.667  0.0000E+00  0.0000E+00
    -15.656  0.0000E+00  0.0000E+00
    -15.645  0.0000E+00  0.0000E+00
    -15.634  0.0000E+00  0.0000E+00
    -15.623  0.0000E+00  0.0000E+00
    -15.612  0.0000E+00  0.0000E+00
    -15.601  0.0000E+00  0.0000E+00
    -15.591  0.0000E+00  0.0000E+00
    -15.580  0.0000E+00  0.0000E+00
    -15.569  0.0000E+00  0.0000E+00
    -15.558  0.0000E+00  0.0000E+00
    -15.547  0.0000E+00  0.0000E+00
    -15.536  0.0000E+00  0.0000E+00
    -15.526  0.0000E+00  0.0000E+00
    -15.515  0.0000E+00  0.0000E+00
    -15.504  0.0000E+00  0.0000E+00
    -15.493  0.0000E+00  0.0000E+00
    -15.482  0.0000E+00  0.0000E+00
    -15.471  0.0000E+00  0.0000E+00
    -15.460  0.0000E+00  0.0000E+00
    -15.450  0.0000E+00  0.0000E+00
    -15.439  0.0000E+00  0.0000E+00
    -15.428  0.0000E+00  0.0000E+00
    -15.417  0.0000E+00  0.0000E+00
    -15.406  0.0000E+00  0.0000E+00
    -15.395  0.0000E+00  0.0000E+00
    -15.384  0.0000E+00  0.0000E+00
    -15.374  0.0000E+00  0.0000E+00
    -15.363  0.0000E+00  0.0000E+00
    -15.352  0.0000E+00  0.0000E+00
    -15.341  0.0000E+00  0.0000E+00
    -15.330  0.0000E+00  0.0000E+00
    -15.319  0.0000E+00  0.0000E+00
    -15.308  0.0000E+00  0.0000E+00
    -15.298  0.0000E+00  0.0000E+00
    -15.287  0.0000E+00  0.0000E+00
    -15.276  0.0000E+00  0.0000E+00
    -15.265  0.0000E+00  0.0000E+00
    -15.254  0.0000E+00  0.0000E+00
    -15.243  0.0000E+00  0.0000E+00
    -15.232  0.0000E+00  0.0000E+00
    -15.222  0.0000E+00  0.0000E+00
    -15.211  0.0000E+00  0.0000E+00
    -15.200  0.0000E+00  0.0000E+00
    -15.189  0.0000E+00  0.0000E+00
    -15.178  0.0000E+00  0.0000E+00
    -15.167  0.0000E+00  0.0000E+00
    -15.157  0.0000E+00  0.0000E+00
    -15.146  0.0000E+00  0.0000E+00
    -15.135  0.0000E+00  0.0000E+00
    -15.124  0.0000E+00  0.0000E+00
    -15.113  0.0000E+00  0.0000E+00
    -15.102  0.0000E+00  0.0000E+00
    -15.091  0.0000E+00  0.0000E+00
    -15.081  0.0000E+00  0.0000E+00
    -15.070  0.0000E+00  0.0000E+00
    -15.059  0.0000E+00  0.0000E+00
    -15.048  0.0000E+00  0.0000E+00
    -15.037  0.0000E+00  0.0000E+00
    -15.026  0.0000E+00  0.0000E+00
    -15.015  0.0000E+00  0.0000E+00
    -15.005  0.0000E+00  0.0000E+00
    -14.994  0.0000E+00  0.0000E+00
    -14.983  0.0000E+00  0.0000E+00
    -14.972  0.0000E+00  0.0000E+00
    -14.961  0.0000E+00  0.0000E+00
    -14.950  0.0000E+00  0.0000E+00
    -14.939  0.0000E+00  0.0000E+00
    -14.929  0.0000E+00  0.0000E+00
    -14.918  0.0000E+00  0.0000E+00
    -14.907  0.3197E-12  0.3469E-14
    -14.896  0.1161E-07  0.1261E-09
    -14.885  0.4245E-04  0.4608E-06
    -14.874  0.1620E-01  0.1763E-03
    -14.863  0.6939E+00  0.7707E-02
    -14.853  0.3765E+01  0.4857E-01
    -14.842  0.2891E+01  0.7995E-01
    -14.831  0.3075E+00  0.8329E-01
    -14.820  0.3993E-02  0.8333E-01
    -14.809  0.5680E-05  0.8333E-01
    -14.798  0.8329E-09  0.8333E-01
    -14.787  0.9718E-13  0.8333E-01
    -14.777  0.4019E-08  0.8333E-01
    -14.766  0.1897E-04  0.8333E-01
    -14.755  0.9298E-02  0.8343E-01
    -14.744  0.5062E+00  0.8893E-01
    -14.733  0.3438E+01  0.1262E+00
    -14.722  0.3280E+01  0.1618E+00
    -14.712  0.4376E+00  0.1666E+00
    -14.701  0.7239E-02  0.1667E+00
    -14.690  0.1739E-02  0.1667E+00
    -14.679  0.1840E+00  0.1687E+00
    -14.668  0.2350E+01  0.1942E+00
    -14.657  0.4093E+01  0.2386E+00
    -14.646  0.1016E+01  0.2496E+00
    -14.636  0.3259E-01  0.2500E+00
    -14.625  0.1192E-03  0.2500E+00
    -14.614  0.4587E-07  0.2500E+00
    -14.603  0.1783E-11  0.2500E+00
    -14.592  0.0000E+00  0.2500E+00
    -14.581  0.5881E-11  0.2500E+00
    -14.570  0.1366E-06  0.2500E+00
    -14.560  0.3207E-03  0.2500E+00
    -14.549  0.7948E-01  0.2509E+00
    -14.538  0.2255E+01  0.2753E+00
    -14.527  0.8327E+01  0.3657E+00
    -14.516  0.4808E+01  0.4179E+00
    -14.505  0.5306E+01  0.4755E+00
    -14.494  0.8041E+01  0.5628E+00
    -14.484  0.1842E+01  0.5827E+00
    -14.473  0.5423E-01  0.5833E+00
    -14.462  0.1813E-03  0.5833E+00
    -14.451  0.1940E-06  0.5833E+00
    -14.440  0.3098E-03  0.5833E+00
    -14.429  0.7766E-01  0.5842E+00
    -14.418  0.2229E+01  0.6084E+00
    -14.408  0.8380E+01  0.6993E+00
    -14.397  0.6561E+01  0.7705E+00
    -14.386  0.8577E+01  0.8636E+00
    -14.375  0.4545E+01  0.9129E+00
    -14.364  0.3713E+00  0.9170E+00
    -14.353  0.1370E+01  0.9318E+00
    -14.343  0.7859E+01  0.1017E+01
    -14.332  0.1051E+02  0.1131E+01
    -14.321  0.8826E+01  0.1227E+01
    -14.310  0.2056E+01  0.1249E+01
    -14.299  0.6615E-01  0.1250E+01
    -14.288  0.2436E-03  0.1250E+01
    -14.277  0.9442E-07  0.1250E+01
    -14.267  0.3696E-11  0.1250E+01
    -14.256  0.0000E+00  0.1250E+01
    -14.245  0.0000E+00  0.1250E+01
    -14.234  0.2099E-10  0.1250E+01
    -14.223  0.4325E-06  0.1250E+01
    -14.212  0.9024E-03  0.1250E+01
    -14.201  0.1993E+00  0.1252E+01
    -14.191  0.5070E+01  0.1307E+01
    -14.180  0.1689E+02  0.1490E+01
    -14.169  0.8037E+01  0.1578E+01
    -14.158  0.5158E+00  0.1583E+01
    -14.147  0.3919E-02  0.1583E+01
    -14.136  0.3200E-05  0.1583E+01
    -14.125  0.2672E-09  0.1583E+01
    -14.115  0.1979E-07  0.1583E+01
    -14.104  0.8890E-04  0.1583E+01
    -14.093  0.4150E-01  0.1584E+01
    -14.082  0.2157E+01  0.1607E+01
    -14.071  0.1402E+02  0.1759E+01
    -14.060  0.1283E+02  0.1899E+01
    -14.049  0.1638E+01  0.1916E+01
    -14.039  0.2871E-01  0.1917E+01
    -14.028  0.4212E+00  0.1921E+01
    -14.017  0.7319E+01  0.2001E+01
    -14.006  0.1704E+02  0.2186E+01
    -13.995  0.5676E+01  0.2247E+01
    -13.984  0.2492E+00  0.2250E+01
    -13.974  0.1267E-02  0.2250E+01
    -13.963  0.6846E-06  0.2250E+01
    -13.952  0.3751E-10  0.2250E+01
    -13.941  0.0000E+00  0.2250E+01
    -13.930  0.0000E+00  0.2250E+01
    -13.919  0.0000E+00  0.2250E+01
    -13.908  0.0000E+00  0.2250E+01
    -13.898  0.0000E+00  0.2250E+01
    -13.887  0.0000E+00  0.2250E+01
    -13.876  0.0000E+00  0.2250E+01
    -13.865  0.0000E+00  0.2250E+01
    -13.854  0.0000E+00  0.2250E+01
    -13.843  0.0000E+00  0.2250E+01
    -13.832  0.0000E+00  0.2250E+01
    -13.822  0.0000E+00  0.2250E+01
    -13.811  0.0000E+00  0.2250E+01
    -13.800  0.0000E+00  0.2250E+01
    -13.789  0.0000E+00  0.2250E+01
    -13.778  0.0000E+00  0.2250E+01
    -13.767  0.0000E+00  0.2250E+01
    -13.756  0.0000E+00  0.2250E+01
    -13.746  0.0000E+00  0.2250E+01
    -13.735  0.0000E+00  0.2250E+01
    -13.724  0.0000E+00  0.2250E+01
    -13.713  0.0000E+00  0.2250E+01
    -13.702  0.0000E+00  0.2250E+01
    -13.691  0.0000E+00  0.2250E+01
    -13.680  0.0000E+00  0.2250E+01
    -13.670  0.0000E+00  0.2250E+01
    -13.659  0.0000E+00  0.2250E+01
    -13.648  0.0000E+00  0.2250E+01
    -13.637  0.0000E+00  0.2250E+01
    -13.626  0.4270E-10  0.2250E+01
    -13.615  0.6548E-06  0.2250E+01
    -13.604  0.1021E-02  0.2250E+01
    -13.594  0.1699E+00  0.2252E+01
    -13.583  0.3305E+01  0.2288E+01
    -13.572  0.8558E+01  0.2381E+01
    -13.561  0.3451E+01  0.2418E+01
    -13.550  0.4343E+01  0.2465E+01
    -13.539  0.8393E+01  0.2556E+01
    -13.529  0.2402E+01  0.2582E+01
    -13.518  0.8976E-01  0.2583E+01
    -13.507  0.4979E-03  0.2583E+01
    -13.496  0.3932E-01  0.2584E+01
    -13.485  0.1554E+01  0.2601E+01
    -13.474  0.8398E+01  0.2692E+01
    -13.463  0.1144E+02  0.2816E+01
    -13.453  0.7955E+01  0.2902E+01
    -13.442  0.2062E+01  0.2925E+01
    -13.431  0.6256E+01  0.2993E+01
    -13.420  0.7203E+01  0.3071E+01
    -13.409  0.2411E+01  0.3097E+01
    -13.398  0.7338E+01  0.3177E+01
    -13.387  0.6062E+01  0.3242E+01
    -13.377  0.6984E+00  0.3250E+01
    -13.366  0.9878E-02  0.3250E+01
    -13.355  0.1536E-04  0.3250E+01
    -13.344  0.2465E-08  0.3250E+01
    -13.333  0.3921E-13  0.3250E+01
    -13.322  0.0000E+00  0.3250E+01
    -13.311  0.1705E-14  0.3250E+01
    -13.301  0.2102E-09  0.3250E+01
    -13.290  0.2656E-05  0.3250E+01
    -13.279  0.3423E-02  0.3250E+01
    -13.268  0.4746E+00  0.3255E+01
    -13.257  0.7982E+01  0.3342E+01
    -13.246  0.2271E+02  0.3588E+01
    -13.235  0.2238E+02  0.3831E+01
    -13.225  0.7455E+01  0.3912E+01
    -13.214  0.4120E+00  0.3917E+01
    -13.203  0.2806E-02  0.3917E+01
    -13.192  0.3213E-01  0.3917E+01
    -13.181  0.1860E+01  0.3937E+01
    -13.170  0.1339E+02  0.4083E+01
    -13.160  0.1416E+02  0.4236E+01
    -13.149  0.1089E+02  0.4354E+01
    -13.138  0.1771E+02  0.4547E+01
    -13.127  0.1549E+02  0.4715E+01
    -13.116  0.1553E+02  0.4883E+01
    -13.105  0.3602E+01  0.4922E+01
    -13.094  0.8608E+01  0.5016E+01
    -13.084  0.1673E+02  0.5197E+01
    -13.073  0.4684E+01  0.5248E+01
    -13.062  0.1709E+00  0.5250E+01
    -13.051  0.7151E-03  0.5250E+01
    -13.040  0.3161E-06  0.5250E+01
    -13.029  0.1414E-10  0.5250E+01
    -13.018  0.0000E+00  0.5250E+01
    -13.008  0.0000E+00  0.5250E+01
    -12.997  0.0000E+00  0.5250E+01
    -12.986  0.0000E+00  0.5250E+01
    -12.975  0.0000E+00  0.5250E+01
    -12.964  0.0000E+00  0.5250E+01
    -12.953  0.0000E+00  0.5250E+01
    -12.942  0.0000E+00  0.5250E+01
    -12.932  0.0000E+00  0.5250E+01
    -12.921  0.0000E+00  0.5250E+01
    -12.910  0.0000E+00  0.5250E+01
    -12.899  0.0000E+00  0.5250E+01
    -12.888  0.0000E+00  0.5250E+01
    -12.877  0.0000E+00  0.5250E+01
    -12.866  0.0000E+00  0.5250E+01
    -12.856  0.0000E+00  0.5250E+01
    -12.845  0.0000E+00  0.5250E+01
    -12.834  0.0000E+00  0.5250E+01
    -12.823  0.0000E+00  0.5250E+01
    -12.812  0.0000E+00  0.5250E+01
    -12.801  0.0000E+00  0.5250E+01
    -12.790  0.0000E+00  0.5250E+01
    -12.780  0.0000E+00  0.5250E+01
    -12.769  0.0000E+00  0.5250E+01
    -12.758  0.0000E+00  0.5250E+01
    -12.747  0.0000E+00  0.5250E+01
    -12.736  0.0000E+00  0.5250E+01
    -12.725  0.0000E+00  0.5250E+01
    -12.715  0.0000E+00  0.5250E+01
    -12.704  0.0000E+00  0.5250E+01
    -12.693  0.0000E+00  0.5250E+01
    -12.682  0.0000E+00  0.5250E+01
    -12.671  0.0000E+00  0.5250E+01
    -12.660  0.0000E+00  0.5250E+01
    -12.649  0.1756E-12  0.5250E+01
    -12.639  0.8215E-08  0.5250E+01
    -12.628  0.3858E-04  0.5250E+01
    -12.617  0.1881E-01  0.5250E+01
    -12.606  0.1019E+01  0.5261E+01
    -12.595  0.6891E+01  0.5336E+01
    -12.584  0.6544E+01  0.5407E+01
    -12.573  0.8692E+00  0.5417E+01
    -12.563  0.1431E-01  0.5417E+01
    -12.552  0.2604E-04  0.5417E+01
    -12.541  0.4908E-08  0.5417E+01
    -12.530  0.9206E-13  0.5417E+01
    -12.519  0.1705E-14  0.5417E+01
    -12.508  0.2091E-09  0.5417E+01
    -12.497  0.2273E-05  0.5417E+01
    -12.487  0.2527E-02  0.5417E+01
    -12.476  0.3028E+00  0.5420E+01
    -12.465  0.4318E+01  0.5467E+01
    -12.454  0.8347E+01  0.5557E+01
    -12.443  0.2303E+01  0.5582E+01
    -12.432  0.8280E-01  0.5583E+01
    -12.421  0.2664E-01  0.5584E+01
    -12.411  0.1235E+01  0.5597E+01
    -12.400  0.7508E+01  0.5679E+01
    -12.389  0.1141E+02  0.5802E+01
    -12.378  0.1933E+02  0.6012E+01
    -12.367  0.1212E+02  0.6144E+01
    -12.356  0.2042E+01  0.6166E+01
    -12.346  0.7863E-01  0.6167E+01
    -12.335  0.6614E-01  0.6167E+01
    -12.324  0.2798E+01  0.6198E+01
    -12.313  0.1509E+02  0.6362E+01
    -12.302  0.1155E+02  0.6487E+01
    -12.291  0.2968E+01  0.6519E+01
    -12.280  0.1839E+02  0.6719E+01
    -12.270  0.3154E+02  0.7061E+01
    -12.259  0.9313E+01  0.7162E+01
    -12.248  0.4245E+00  0.7167E+01
    -12.237  0.2493E-02  0.7167E+01
    -12.226  0.1641E-05  0.7167E+01
    -12.215  0.1120E-09  0.7167E+01
    -12.204  0.1551E-12  0.7167E+01
    -12.194  0.8498E-08  0.7167E+01
    -12.183  0.4663E-04  0.7167E+01
    -12.172  0.2649E-01  0.7167E+01
    -12.161  0.1662E+01  0.7185E+01
    -12.150  0.1289E+02  0.7325E+01
    -12.139  0.1426E+02  0.7480E+01
    -12.128  0.4959E+01  0.7533E+01
    -12.118  0.3859E+01  0.7575E+01
    -12.107  0.1618E+01  0.7593E+01
    -12.096  0.1020E+02  0.7704E+01
    -12.085  0.1605E+02  0.7878E+01
    -12.074  0.5820E+01  0.7941E+01
    -12.063  0.8429E+01  0.8032E+01
    -12.052  0.4537E+01  0.8082E+01
    -12.042  0.3549E+01  0.8120E+01
    -12.031  0.8559E+01  0.8213E+01
    -12.020  0.3236E+01  0.8248E+01
    -12.009  0.1627E+00  0.8250E+01
    -11.998  0.9560E-03  0.8250E+01
    -11.987  0.2045E-02  0.8250E+01
    -11.977  0.2651E+00  0.8253E+01
    -11.966  0.4103E+01  0.8297E+01
    -11.955  0.9486E+01  0.8400E+01
    -11.944  0.6616E+01  0.8472E+01
    -11.933  0.2393E+01  0.8498E+01
    -11.922  0.6986E+00  0.8506E+01
    -11.911  0.5441E+01  0.8565E+01
    -11.901  0.7770E+01  0.8649E+01
    -11.890  0.1575E+01  0.8666E+01
    -11.879  0.4706E-01  0.8667E+01
    -11.868  0.7005E+00  0.8674E+01
    -11.857  0.9203E+01  0.8774E+01
    -11.846  0.1646E+02  0.8953E+01
    -11.835  0.4200E+01  0.8998E+01
    -11.825  0.1388E+00  0.9000E+01
    -11.814  0.1342E-01  0.9000E+01
    -11.803  0.8178E+00  0.9009E+01
    -11.792  0.6410E+01  0.9079E+01
    -11.781  0.7101E+01  0.9156E+01
    -11.770  0.4336E+01  0.9203E+01
    -11.759  0.1568E+02  0.9373E+01
    -11.749  0.1070E+02  0.9489E+01
    -11.738  0.1680E+01  0.9507E+01
    -11.727  0.9068E+01  0.9606E+01
    -11.716  0.1653E+02  0.9785E+01
    -11.705  0.4302E+01  0.9832E+01
    -11.694  0.1452E+00  0.9833E+01
    -11.683  0.5601E-03  0.9833E+01
    -11.673  0.2277E-06  0.9833E+01
    -11.662  0.5108E-10  0.9833E+01
    -11.651  0.6430E-06  0.9833E+01
    -11.640  0.1008E-02  0.9833E+01
    -11.629  0.1685E+00  0.9835E+01
    -11.618  0.3291E+01  0.9871E+01
    -11.607  0.8556E+01  0.9964E+01
    -11.597  0.3182E+01  0.9998E+01
    -11.586  0.1958E+00  0.1000E+02
    -11.575  0.1533E+01  0.1002E+02
    -11.564  0.7719E+01  0.1010E+02
    -11.553  0.5516E+01  0.1016E+02
    -11.542  0.5439E+00  0.1017E+02
    -11.532  0.3454E-01  0.1017E+02
    -11.521  0.1717E+01  0.1019E+02
    -11.510  0.1303E+02  0.1033E+02
    -11.499  0.1383E+02  0.1048E+02
    -11.488  0.2064E+01  0.1050E+02
    -11.477  0.3846E-01  0.1050E+02
    -11.466  0.3730E-03  0.1050E+02
    -11.456  0.9400E-01  0.1050E+02
    -11.445  0.3408E+01  0.1054E+02
    -11.434  0.1582E+02  0.1071E+02
    -11.423  0.1043E+02  0.1082E+02
    -11.412  0.9457E+00  0.1083E+02
    -11.401  0.1036E-01  0.1083E+02
    -11.390  0.1236E-04  0.1083E+02
    -11.380  0.2500E-08  0.1083E+02
    -11.369  0.8860E-05  0.1083E+02
    -11.358  0.8168E-02  0.1083E+02
    -11.347  0.8169E+00  0.1084E+02
    -11.336  0.9824E+01  0.1095E+02
    -11.325  0.1617E+02  0.1112E+02
    -11.314  0.4548E+01  0.1117E+02
    -11.304  0.9657E+01  0.1128E+02
    -11.293  0.1631E+02  0.1146E+02
    -11.282  0.3970E+01  0.1150E+02
    -11.271  0.1247E+00  0.1150E+02
    -11.260  0.4463E-03  0.1150E+02
    -11.249  0.1680E-06  0.1150E+02
    -11.238  0.6383E-11  0.1150E+02
    -11.228  0.0000E+00  0.1150E+02
    -11.217  0.0000E+00  0.1150E+02
    -11.206  0.0000E+00  0.1150E+02
    -11.195  0.0000E+00  0.1150E+02
    -11.184  0.0000E+00  0.1150E+02
    -11.173  0.0000E+00  0.1150E+02
    -11.163  0.0000E+00  0.1150E+02
    -11.152  0.0000E+00  0.1150E+02
    -11.141  0.0000E+00  0.1150E+02
    -11.130  0.0000E+00  0.1150E+02
    -11.119  0.0000E+00  0.1150E+02
    -11.108  0.0000E+00  0.1150E+02
    -11.097  0.0000E+00  0.1150E+02
    -11.087  0.1523E-11  0.1150E+02
    -11.076  0.4656E-07  0.1150E+02
    -11.065  0.1434E-03  0.1150E+02
    -11.054  0.4629E-01  0.1150E+02
    -11.043  0.1690E+01  0.1152E+02
    -11.032  0.7896E+01  0.1160E+02
    -11.021  0.5241E+01  0.1166E+02
    -11.011  0.4782E+00  0.1167E+02
    -11.000  0.5277E-02  0.1167E+02
    -10.989  0.6339E-05  0.1167E+02
    -10.978  0.7826E-09  0.1167E+02
    -10.967  0.1023E-13  0.1167E+02
    -10.956  0.0000E+00  0.1167E+02
    -10.945  0.0000E+00  0.1167E+02
    -10.935  0.0000E+00  0.1167E+02
    -10.924  0.0000E+00  0.1167E+02
    -10.913  0.0000E+00  0.1167E+02
    -10.902  0.0000E+00  0.1167E+02
    -10.891  0.0000E+00  0.1167E+02
    -10.880  0.0000E+00  0.1167E+02
    -10.869  0.0000E+00  0.1167E+02
    -10.859  0.0000E+00  0.1167E+02
    -10.848  0.4168E-12  0.1167E+02
    -10.837  0.1648E-07  0.1167E+02
    -10.826  0.6549E-04  0.1167E+02
    -10.815  0.2711E-01  0.1167E+02
    -10.804  0.1256E+01  0.1168E+02
    -10.793  0.7330E+01  0.1176E+02
    -10.783  0.6041E+01  0.1183E+02
    -10.772  0.6919E+00  0.1183E+02
    -10.761  0.9725E-02  0.1183E+02
    -10.750  0.1502E-04  0.1183E+02
    -10.739  0.2394E-08  0.1183E+02
    -10.728  0.3751E-13  0.1183E+02
    -10.718  0.0000E+00  0.1183E+02
    -10.707  0.0000E+00  0.1183E+02
    -10.696  0.0000E+00  0.1183E+02
    -10.685  0.0000E+00  0.1183E+02
    -10.674  0.1253E-12  0.1183E+02
    -10.663  0.6246E-08  0.1183E+02
    -10.652  0.3130E-04  0.1183E+02
    -10.642  0.1627E-01  0.1183E+02
    -10.631  0.9369E+00  0.1184E+02
    -10.620  0.6708E+01  0.1192E+02
    -10.609  0.6731E+01  0.1199E+02
    -10.598  0.9469E+00  0.1200E+02
    -10.587  0.1657E-01  0.1200E+02
    -10.576  0.3214E-04  0.1200E+02
    -10.566  0.6465E-08  0.1200E+02
    -10.555  0.1296E-12  0.1200E+02
    -10.544  0.0000E+00  0.1200E+02
    -10.533  0.0000E+00  0.1200E+02
    -10.522  0.0000E+00  0.1200E+02
    -10.511  0.0000E+00  0.1200E+02
    -10.500  0.0000E+00  0.1200E+02
    -10.490  0.0000E+00  0.1200E+02
    -10.479  0.0000E+00  0.1200E+02
    -10.468  0.0000E+00  0.1200E+02
    -10.457  0.0000E+00  0.1200E+02
    -10.446  0.0000E+00  0.1200E+02
    -10.435  0.0000E+00  0.1200E+02
    -10.424  0.0000E+00  0.1200E+02
    -10.414  0.0000E+00  0.1200E+02
    -10.403  0.0000E+00  0.1200E+02
    -10.392  0.0000E+00  0.1200E+02
    -10.381  0.0000E+00  0.1200E+02
    -10.370  0.0000E+00  0.1200E+02
    -10.359  0.0000E+00  0.1200E+02
    -10.349  0.0000E+00  0.1200E+02
    -10.338  0.0000E+00  0.1200E+02
    -10.327  0.0000E+00  0.1200E+02
    -10.316  0.0000E+00  0.1200E+02
    -10.305  0.0000E+00  0.1200E+02
    -10.294  0.4527E-12  0.1200E+02
    -10.283  0.1760E-07  0.1200E+02
    -10.273  0.6883E-04  0.1200E+02
    -10.262  0.2806E-01  0.1200E+02
    -10.251  0.1280E+01  0.1201E+02
    -10.240  0.7370E+01  0.1209E+02
    -10.229  0.5992E+01  0.1216E+02
    -10.218  0.6767E+00  0.1217E+02
    -10.207  0.9368E-02  0.1217E+02
    -10.197  0.1953E-04  0.1217E+02
    -10.186  0.4638E-02  0.1217E+02
    -10.175  0.4418E+00  0.1217E+02
    -10.164  0.5075E+01  0.1223E+02
    -10.153  0.8140E+01  0.1231E+02
    -10.142  0.4868E+01  0.1237E+02
    -10.131  0.8602E+01  0.1246E+02
    -10.121  0.3399E+01  0.1250E+02
    -10.110  0.1802E+00  0.1250E+02
    -10.099  0.1118E-02  0.1250E+02
    -10.088  0.7409E-06  0.1250E+02
    -10.077  0.4997E-10  0.1250E+02
    -10.066  0.0000E+00  0.1250E+02
    -10.055  0.0000E+00  0.1250E+02
    -10.045  0.0000E+00  0.1250E+02
    -10.034  0.0000E+00  0.1250E+02
    -10.023  0.0000E+00  0.1250E+02
    -10.012  0.0000E+00  0.1250E+02
    -10.001  0.0000E+00  0.1250E+02
     -9.990  0.0000E+00  0.1250E+02
     -9.980  0.0000E+00  0.1250E+02
     -9.969  0.0000E+00  0.1250E+02
     -9.958  0.0000E+00  0.1250E+02
     -9.947  0.0000E+00  0.1250E+02
     -9.936  0.0000E+00  0.1250E+02
     -9.925  0.0000E+00  0.1250E+02
     -9.914  0.0000E+00  0.1250E+02
     -9.904  0.0000E+00  0.1250E+02
     -9.893  0.0000E+00  0.1250E+02
     -9.882  0.0000E+00  0.1250E+02
     -9.871  0.0000E+00  0.1250E+02
     -9.860  0.0000E+00  0.1250E+02
     -9.849  0.0000E+00  0.1250E+02
     -9.838  0.0000E+00  0.1250E+02
     -9.828  0.0000E+00  0.1250E+02
     -9.817  0.0000E+00  0.1250E+02
     -9.806  0.2046E-13  0.1250E+02
     -9.795  0.1662E-08  0.1250E+02
     -9.784  0.1328E-04  0.1250E+02
     -9.773  0.1091E-01  0.1250E+02
     -9.762  0.9760E+00  0.1251E+02
     -9.752  0.1057E+02  0.1263E+02
     -9.741  0.1574E+02  0.1280E+02
     -9.730  0.3329E+01  0.1283E+02
     -9.719  0.9004E-01  0.1283E+02
     -9.708  0.2753E-03  0.1283E+02
     -9.697  0.8817E-07  0.1283E+02
     -9.686  0.2844E-11  0.1283E+02
     -9.676  0.0000E+00  0.1283E+02
     -9.665  0.0000E+00  0.1283E+02
     -9.654  0.0000E+00  0.1283E+02
     -9.643  0.2898E-12  0.1283E+02
     -9.632  0.1408E-07  0.1283E+02
     -9.621  0.6859E-04  0.1283E+02
     -9.610  0.3467E-01  0.1283E+02
     -9.600  0.1944E+01  0.1285E+02
     -9.589  0.1358E+02  0.1300E+02
     -9.578  0.1330E+02  0.1315E+02
     -9.567  0.1825E+01  0.1317E+02
     -9.556  0.3208E-01  0.1317E+02
     -9.545  0.1662E+00  0.1317E+02
     -9.535  0.3269E+01  0.1320E+02
     -9.524  0.8556E+01  0.1330E+02
     -9.513  0.3204E+01  0.1333E+02
     -9.502  0.1830E+00  0.1333E+02
     -9.491  0.1558E+01  0.1335E+02
     -9.480  0.1302E+02  0.1349E+02
     -9.469  0.2151E+02  0.1373E+02
     -9.459  0.1926E+02  0.1393E+02
     -9.448  0.5994E+01  0.1400E+02
     -9.437  0.5318E+01  0.1406E+02
     -9.426  0.1688E+02  0.1424E+02
     -9.415  0.8235E+01  0.1433E+02
     -9.404  0.3939E+01  0.1437E+02
     -9.393  0.8553E+01  0.1447E+02
     -9.383  0.3056E+01  0.1450E+02
     -9.372  0.1447E+00  0.1450E+02
     -9.361  0.7970E-03  0.1450E+02
     -9.350  0.4672E-06  0.1450E+02
     -9.339  0.2782E-10  0.1450E+02
     -9.328  0.2557E-13  0.1450E+02
     -9.317  0.1956E-08  0.1450E+02
     -9.307  0.1507E-04  0.1450E+02
     -9.296  0.1193E-01  0.1450E+02
     -9.285  0.1031E+01  0.1451E+02
     -9.274  0.1080E+02  0.1463E+02
     -9.263  0.1559E+02  0.1480E+02
     -9.252  0.3194E+01  0.1483E+02
     -9.241  0.8347E-01  0.1483E+02
     -9.231  0.2462E-03  0.1483E+02
     -9.220  0.6745E-06  0.1483E+02
     -9.209  0.1148E-02  0.1483E+02
     -9.198  0.2341E+00  0.1484E+02
     -9.187  0.5616E+01  0.1490E+02
     -9.176  0.1982E+02  0.1511E+02
     -9.166  0.1604E+02  0.1529E+02
     -9.155  0.4140E+01  0.1533E+02
     -9.144  0.2178E+00  0.1533E+02
     -9.133  0.1471E-02  0.1533E+02
     -9.122  0.1077E-05  0.1533E+02
     -9.111  0.8042E-10  0.1533E+02
     -9.100  0.0000E+00  0.1533E+02
     -9.090  0.1068E-10  0.1533E+02
     -9.079  0.2529E-06  0.1533E+02
     -9.068  0.6058E-03  0.1533E+02
     -9.057  0.1530E+00  0.1534E+02
     -9.046  0.4422E+01  0.1538E+02
     -9.035  0.1660E+02  0.1556E+02
     -9.024  0.8968E+01  0.1566E+02
     -9.014  0.3749E+01  0.1570E+02
     -9.003  0.1547E+02  0.1587E+02
     -8.992  0.1097E+02  0.1599E+02
     -8.981  0.1078E+01  0.1600E+02
     -8.970  0.1293E-01  0.1600E+02
     -8.959  0.1701E-04  0.1600E+02
     -8.948  0.2331E-08  0.1600E+02
     -8.938  0.2989E-06  0.1600E+02
     -8.927  0.5735E-03  0.1600E+02
     -8.916  0.1171E+00  0.1600E+02
     -8.905  0.2859E+01  0.1603E+02
     -8.894  0.1226E+02  0.1617E+02
     -8.883  0.1991E+02  0.1638E+02
     -8.872  0.1009E+02  0.1649E+02
     -8.862  0.1225E+01  0.1650E+02
     -8.851  0.5282E+01  0.1656E+02
     -8.840  0.1453E+02  0.1672E+02
     -8.829  0.1781E+02  0.1691E+02
     -8.818  0.7457E+01  0.1699E+02
     -8.807  0.5908E+00  0.1700E+02
     -8.797  0.2087E-01  0.1700E+02
     -8.786  0.1155E+01  0.1701E+02
     -8.775  0.1129E+02  0.1714E+02
     -8.764  0.1526E+02  0.1730E+02
     -8.753  0.2922E+01  0.1733E+02
     -8.742  0.2105E+00  0.1733E+02
     -8.731  0.3002E+01  0.1737E+02
     -8.721  0.8545E+01  0.1746E+02
     -8.710  0.3479E+01  0.1750E+02
     -8.699  0.1892E+00  0.1750E+02
     -8.688  0.6657E-02  0.1750E+02
     -8.677  0.6351E+00  0.1751E+02
     -8.666  0.8819E+01  0.1760E+02
     -8.655  0.1662E+02  0.1778E+02
     -8.645  0.4472E+01  0.1783E+02
     -8.634  0.1566E+00  0.1783E+02
     -8.623  0.6354E-01  0.1783E+02
     -8.612  0.1426E+01  0.1785E+02
     -8.601  0.4262E+01  0.1790E+02
     -8.590  0.1856E+01  0.1792E+02
     -8.579  0.1533E+01  0.1793E+02
     -8.569  0.7588E+01  0.1801E+02
     -8.558  0.5706E+01  0.1808E+02
     -8.547  0.5948E+00  0.1808E+02
     -8.536  0.1661E+00  0.1809E+02
     -8.525  0.3315E+01  0.1812E+02
     -8.514  0.1569E+02  0.1829E+02
     -8.503  0.1662E+02  0.1847E+02
     -8.493  0.5783E+01  0.1853E+02
     -8.482  0.3806E+01  0.1858E+02
     -8.471  0.6764E+00  0.1858E+02
     -8.460  0.1553E-01  0.1858E+02
     -8.449  0.4074E-01  0.1858E+02
     -8.438  0.2772E+01  0.1861E+02
     -8.427  0.2388E+02  0.1887E+02
     -8.417  0.2937E+02  0.1919E+02
     -8.406  0.5241E+01  0.1925E+02
     -8.395  0.1217E+00  0.1925E+02
     -8.384  0.3266E-03  0.1925E+02
     -8.373  0.9397E-07  0.1925E+02
     -8.362  0.2776E-11  0.1925E+02
     -8.352  0.0000E+00  0.1925E+02
     -8.341  0.0000E+00  0.1925E+02
     -8.330  0.0000E+00  0.1925E+02
     -8.319  0.0000E+00  0.1925E+02
     -8.308  0.7331E-13  0.1925E+02
     -8.297  0.4069E-08  0.1925E+02
     -8.286  0.2256E-04  0.1925E+02
     -8.276  0.1294E-01  0.1925E+02
     -8.265  0.8195E+00  0.1926E+02
     -8.254  0.6414E+01  0.1933E+02
     -8.243  0.7011E+01  0.1940E+02
     -8.232  0.1078E+01  0.1942E+02
     -8.221  0.2073E-01  0.1942E+02
     -8.210  0.4439E-04  0.1942E+02
     -8.200  0.9878E-08  0.1942E+02
     -8.189  0.6172E-12  0.1942E+02
     -8.178  0.1812E-07  0.1942E+02
     -8.167  0.8314E-04  0.1942E+02
     -8.156  0.3962E-01  0.1942E+02
     -8.145  0.2100E+01  0.1944E+02
     -8.134  0.1391E+02  0.1959E+02
     -8.124  0.1295E+02  0.1973E+02
     -8.113  0.1685E+01  0.1975E+02
     -8.102  0.2713E-01  0.1975E+02
     -8.091  0.4825E-04  0.1975E+02
     -8.080  0.8886E-08  0.1975E+02
     -8.069  0.1637E-12  0.1975E+02
     -8.058  0.0000E+00  0.1975E+02
     -8.048  0.0000E+00  0.1975E+02
     -8.037  0.7672E-14  0.1975E+02
     -8.026  0.6555E-09  0.1975E+02
     -8.015  0.5526E-05  0.1975E+02
     -8.004  0.4784E-02  0.1975E+02
     -7.993  0.4503E+00  0.1975E+02
     -7.983  0.5114E+01  0.1981E+02
     -7.972  0.7970E+01  0.1990E+02
     -7.961  0.1766E+01  0.1992E+02
     -7.950  0.5019E-01  0.1992E+02
     -7.939  0.1616E-03  0.1992E+02
     -7.928  0.2857E-04  0.1992E+02
     -7.917  0.1875E-01  0.1992E+02
     -7.907  0.1354E+01  0.1993E+02
     -7.896  0.1199E+02  0.2006E+02
     -7.885  0.1474E+02  0.2022E+02
     -7.874  0.2559E+01  0.2025E+02
     -7.863  0.5607E-01  0.2025E+02
     -7.852  0.1375E-03  0.2025E+02
     -7.841  0.3516E-07  0.2025E+02
     -7.831  0.9036E-12  0.2025E+02
     -7.820  0.0000E+00  0.2025E+02
     -7.809  0.0000E+00  0.2025E+02
     -7.798  0.0000E+00  0.2025E+02
     -7.787  0.0000E+00  0.2025E+02
     -7.776  0.0000E+00  0.2025E+02
     -7.765  0.0000E+00  0.2025E+02
     -7.755  0.0000E+00  0.2025E+02
     -7.744  0.0000E+00  0.2025E+02
     -7.733  0.0000E+00  0.2025E+02
     -7.722  0.0000E+00  0.2025E+02
     -7.711  0.0000E+00  0.2025E+02
     -7.700  0.0000E+00  0.2025E+02
     -7.689  0.0000E+00  0.2025E+02
     -7.679  0.0000E+00  0.2025E+02
     -7.668  0.0000E+00  0.2025E+02
     -7.657  0.0000E+00  0.2025E+02
     -7.646  0.0000E+00  0.2025E+02
     -7.635  0.0000E+00  0.2025E+02
     -7.624  0.0000E+00  0.2025E+02
     -7.613  0.0000E+00  0.2025E+02
     -7.603  0.0000E+00  0.2025E+02
     -7.592  0.0000E+00  0.2025E+02
     -7.581  0.5115E-14  0.2025E+02
     -7.570  0.5730E-09  0.2025E+02
     -7.559  0.5811E-05  0.2025E+02
     -7.548  0.6032E-02  0.2025E+02
     -7.538  0.6767E+00  0.2026E+02
     -7.527  0.9067E+01  0.2036E+02
     -7.516  0.1652E+02  0.2054E+02
     -7.505  0.4295E+01  0.2058E+02
     -7.494  0.1447E+00  0.2058E+02
     -7.483  0.5573E-03  0.2058E+02
     -7.472  0.3532E-05  0.2058E+02
     -7.462  0.4012E-02  0.2058E+02
     -7.451  0.5236E+00  0.2059E+02
     -7.440  0.8099E+01  0.2068E+02
     -7.429  0.1765E+02  0.2087E+02
     -7.418  0.1467E+02  0.2103E+02
     -7.407  0.1645E+02  0.2121E+02
     -7.396  0.3901E+01  0.2125E+02
     -7.386  0.1207E+00  0.2125E+02
     -7.375  0.4249E-03  0.2125E+02
     -7.364  0.1573E-06  0.2125E+02
     -7.353  0.5878E-11  0.2125E+02
     -7.342  0.0000E+00  0.2125E+02
     -7.331  0.0000E+00  0.2125E+02
     -7.320  0.0000E+00  0.2125E+02
     -7.310  0.0000E+00  0.2125E+02
     -7.299  0.0000E+00  0.2125E+02
     -7.288  0.0000E+00  0.2125E+02
     -7.277  0.9377E-14  0.2125E+02
     -7.266  0.7860E-09  0.2125E+02
     -7.255  0.6361E-05  0.2125E+02
     -7.244  0.5289E-02  0.2125E+02
     -7.234  0.4789E+00  0.2126E+02
     -7.223  0.5244E+01  0.2131E+02
     -7.212  0.7894E+01  0.2140E+02
     -7.201  0.1688E+01  0.2142E+02
     -7.190  0.4619E-01  0.2142E+02
     -7.179  0.1430E-03  0.2142E+02
     -7.169  0.4638E-07  0.2142E+02
     -7.158  0.1516E-11  0.2142E+02
     -7.147  0.0000E+00  0.2142E+02
     -7.136  0.0000E+00  0.2142E+02
     -7.125  0.0000E+00  0.2142E+02
     -7.114  0.0000E+00  0.2142E+02
     -7.103  0.0000E+00  0.2142E+02
     -7.093  0.0000E+00  0.2142E+02
     -7.082  0.2557E-14  0.2142E+02
     -7.071  0.2540E-09  0.2142E+02
     -7.060  0.2645E-05  0.2142E+02
     -7.049  0.2819E-02  0.2142E+02
     -7.038  0.3243E+00  0.2142E+02
     -7.027  0.4451E+01  0.2147E+02
     -7.017  0.8296E+01  0.2156E+02
     -7.006  0.2206E+01  0.2158E+02
     -6.995  0.7619E-01  0.2158E+02
     -6.984  0.3010E-03  0.2158E+02
     -6.973  0.1254E-06  0.2158E+02
     -6.962  0.8446E-11  0.2158E+02
     -6.951  0.8338E-07  0.2158E+02
     -6.941  0.2219E-03  0.2158E+02
     -6.930  0.6214E-01  0.2158E+02
     -6.919  0.1981E+01  0.2161E+02
     -6.908  0.8164E+01  0.2169E+02
     -6.897  0.5644E+01  0.2176E+02
     -6.886  0.6921E+01  0.2183E+02