<?xml version="1.0" encoding="ISO-8859-1"?>
<modeling>
 <generator>
  <i name="program" type="string">vasp </i>
  <i name="version" type="string">5.4.4.18Apr17-6-g9f103f2a35  </i>
  <i name="subversion" type="string">(build Jun 20 2017 18:00:50) complex            parallel </i>
  <i name="platform" type="string">LinuxIFC </i>
  <i name="date" type="string">2018 03 16 </i>
  <i name="time" type="string">16:01:10 </i>
 </generator>
 <incar>
  <i type="string" name="SYSTEM"> Generic Input</i>
  <i type="int" name="ISTART">     1</i>
  <i type="string" name="PREC">normal    ! precision level</i>
  <i type="int" name="IALGO">    53</i>
  <i type="string" name="ALGO"> Normal    ! SCF minimisation algorithm</i>
  <i type="int" name="INIWAV">     1</i>
  <i type="int" name="NELM">   200</i>
  <i type="int" name="NELMIN">     2</i>
  <i type="int" name="IBRION">     2</i>
  <i name="EDIFF">      0.00001000</i>
  <i name="EDIFFG">     -0.02000000</i>
  <i type="int" name="NSW">     0</i>
  <i type="int" name="ISIF">     3</i>
  <i type="int" name="IWAVPR">    11</i>
  <i type="int" name="NBLOCK">     1</i>
  <i type="int" name="KBLOCK">    40</i>
  <i name="ENCUT">    350.00000000</i>
  <i type="int" name="NEDOS">  2000</i>
  <i type="int" name="ISMEAR">     0</i>
  <i name="SIGMA">      0.01000000</i>
  <i type="int" name="NWRITE">     2</i>
  <i type="logical" name="LVHAR"> T  </i>
  <i type="int" name="LORBIT">    11</i>
  <i type="logical" name="LASPH"> T  </i>
  <i type="int" name="ICORELEVEL">     1</i>
  <v type="int" name="KPOINT_BSE">    -1     0     0     0</v>
  <i type="int" name="NELM">   200</i>
  <i type="string" name="GGA"> PE        ! PBEsol exchange-correlation</i>
  <i type="logical" name="LASPH"> T  </i>
 </incar>
 <structure name="primitive_cell" >
  <crystal>
   <varray name="basis" >
    <v>       3.34288600       0.00000000       0.00000000 </v>
    <v>       0.00000000      32.60240900       0.00000000 </v>
    <v>       0.00000000       0.00000000       4.37483100 </v>
   </varray>
   <i name="volume">    476.79592902 </i>
   <varray name="rec_basis" >
    <v>       0.29914272       0.00000000       0.00000000 </v>
    <v>       0.00000000       0.03067258       0.00000000 </v>
    <v>       0.00000000       0.00000000       0.22858026 </v>
   </varray>
  </crystal>
  <varray name="positions" >
   <v>       0.00000000       0.30672600      -0.08107600 </v>
   <v>      -0.50000000       0.30672600      -0.41892400 </v>
   <v>       0.00000000       0.37246700       0.08107600 </v>
   <v>      -0.50000000       0.37246700       0.41892400 </v>
   <v>       0.00000000       0.46712900      -0.41892400 </v>
   <v>      -0.50000000       0.46712900      -0.08107600 </v>
   <v>      -0.50000000      -0.46712900       0.08107600 </v>
   <v>       0.00000000      -0.46712900       0.41892400 </v>
   <v>       0.00000000      -0.37246700      -0.08107600 </v>
   <v>      -0.50000000      -0.37246700      -0.41892400 </v>
   <v>       0.00000000      -0.30672600       0.08107600 </v>
   <v>      -0.50000000      -0.30672600       0.41892400 </v>
  </varray>
 </structure>
 <varray name="primitive_index" >
  <v type="int" >        1 </v>
  <v type="int" >        2 </v>
  <v type="int" >        3 </v>
  <v type="int" >        4 </v>
  <v type="int" >        6 </v>
  <v type="int" >        5 </v>
  <v type="int" >        7 </v>
  <v type="int" >        8 </v>
  <v type="int" >        9 </v>
  <v type="int" >       10 </v>
  <v type="int" >       11 </v>
  <v type="int" >       12 </v>
 </varray>
 <kpoints>
  <generation param="Gamma">
   <v type="int" name="divisions">       6        1        4 </v>
   <v name="usershift">      0.00000000       0.00000000       0.00000000 </v>
   <v name="genvec1">      0.16666667       0.00000000       0.00000000 </v>
   <v name="genvec2">      0.00000000       1.00000000       0.00000000 </v>
   <v name="genvec3">      0.00000000       0.00000000       0.25000000 </v>
   <v name="shift">      0.00000000       0.00000000       0.00000000 </v>
  </generation>
  <varray name="kpointlist" >
   <v>       0.00000000       0.00000000       0.00000000 </v>
   <v>       0.16666667       0.00000000       0.00000000 </v>
   <v>       0.33333333       0.00000000       0.00000000 </v>
   <v>       0.50000000       0.00000000       0.00000000 </v>
   <v>       0.00000000       0.00000000       0.25000000 </v>
   <v>       0.16666667       0.00000000       0.25000000 </v>
   <v>       0.33333333       0.00000000       0.25000000 </v>
   <v>       0.50000000       0.00000000       0.25000000 </v>
   <v>       0.00000000       0.00000000       0.50000000 </v>
   <v>       0.16666667       0.00000000       0.50000000 </v>
   <v>       0.33333333       0.00000000       0.50000000 </v>
   <v>       0.50000000       0.00000000       0.50000000 </v>
  </varray>
  <varray name="weights" >
   <v>       0.04166667 </v>
   <v>       0.08333333 </v>
   <v>       0.08333333 </v>
   <v>       0.04166667 </v>
   <v>       0.08333333 </v>
   <v>       0.16666667 </v>
   <v>       0.16666667 </v>
   <v>       0.08333333 </v>
   <v>       0.04166667 </v>
   <v>       0.08333333 </v>
   <v>       0.08333333 </v>
   <v>       0.04166667 </v>
  </varray>
 </kpoints>
 <parameters>
  <separator name="general" >
   <i type="string" name="SYSTEM">Generic Input</i>
   <i type="logical" name="LCOMPAT"> F  </i>
  </separator>
  <separator name="electronic" >
   <i type="string" name="PREC">normal</i>
   <i name="ENMAX">    350.00000000</i>
   <i name="ENAUG">    342.92400000</i>
   <i name="EDIFF">      0.00001000</i>
   <i type="int" name="IALGO">    38</i>
   <i type="int" name="IWAVPR">    11</i>
   <i type="int" name="NBANDS">    40</i>
   <i name="NELECT">     60.00000000</i>
   <i type="int" name="TURBO">     0</i>
   <i type="int" name="IRESTART">     0</i>
   <i type="int" name="NREBOOT">     0</i>
   <i type="int" name="NMIN">     0</i>
   <i name="EREF">      0.00000000</i>
   <separator name="electronic smearing" >
    <i type="int" name="ISMEAR">     0</i>
    <i name="SIGMA">      0.01000000</i>
    <i name="KSPACING">      0.50000000</i>
    <i type="logical" name="KGAMMA"> T  </i>
   </separator>
   <separator name="electronic projectors" >
    <i type="logical" name="LREAL"> F  </i>
    <v name="ROPT">      0.00000000</v>
    <i type="int" name="LMAXPAW">  -100</i>
    <i type="int" name="LMAXMIX">     2</i>
    <i type="logical" name="NLSPLINE"> F  </i>
   </separator>
   <separator name="electronic startup" >
    <i type="int" name="ISTART">     0</i>
    <i type="int" name="ICHARG">     2</i>
    <i type="int" name="INIWAV">     1</i>
   </separator>
   <separator name="electronic spin" >
    <i type="int" name="ISPIN">     1</i>
    <i type="logical" name="LNONCOLLINEAR"> F  </i>
    <v name="MAGMOM">      1.00000000      1.00000000      1.00000000      1.00000000      1.00000000      1.00000000      1.00000000      1.00000000      1.00000000      1.00000000      1.00000000      1.00000000</v>
    <i name="NUPDOWN">     -1.00000000</i>
    <i type="logical" name="LSORBIT"> F  </i>
    <v name="SAXIS">      0.00000000      0.00000000      1.00000000</v>
    <i type="logical" name="LSPIRAL"> F  </i>
    <v name="QSPIRAL">      0.00000000      0.00000000      0.00000000</v>
    <i type="logical" name="LZEROZ"> F  </i>
   </separator>
   <separator name="electronic exchange-correlation" >
    <i type="logical" name="LASPH"> T  </i>
    <i type="logical" name="LMETAGGA"> F  </i>
   </separator>
   <separator name="electronic convergence" >
    <i type="int" name="NELM">   200</i>
    <i type="int" name="NELMDL">     0</i>
    <i type="int" name="NELMIN">     2</i>
    <i name="ENINI">    350.00000000</i>
    <separator name="electronic convergence detail" >
     <i type="logical" name="LDIAG"> T  </i>
     <i type="logical" name="LSUBROT"> F  </i>
     <i name="WEIMIN">      0.00000000</i>
     <i name="EBREAK">      0.00000006</i>
     <i name="DEPER">      0.30000000</i>
     <i type="int" name="NRMM">     4</i>
     <i name="TIME">      0.40000000</i>
    </separator>
   </separator>
   <separator name="electronic mixer" >
    <i name="AMIX">      0.40000000</i>
    <i name="BMIX">      1.00000000</i>
    <i name="AMIN">      0.10000000</i>
    <i name="AMIX_MAG">      1.60000000</i>
    <i name="BMIX_MAG">      1.00000000</i>
    <separator name="electronic mixer details" >
     <i type="int" name="IMIX">     4</i>
     <i type="logical" name="MIXFIRST"> F  </i>
     <i type="int" name="MAXMIX">   -45</i>
     <i name="WC">    100.00000000</i>
     <i type="int" name="INIMIX">     1</i>
     <i type="int" name="MIXPRE">     1</i>
     <i type="int" name="MREMOVE">     5</i>
    </separator>
   </separator>
   <separator name="electronic dipolcorrection" >
    <i type="logical" name="LDIPOL"> F  </i>
    <i type="logical" name="LMONO"> F  </i>
    <i type="int" name="IDIPOL">     0</i>
    <i name="EPSILON">      1.00000000</i>
    <v name="DIPOL">   -100.00000000   -100.00000000   -100.00000000</v>
    <i name="EFIELD">      0.00000000</i>
   </separator>
  </separator>
  <separator name="grids" >
   <i type="int" name="NGX">    16</i>
   <i type="int" name="NGY">   150</i>
   <i type="int" name="NGZ">    20</i>
   <i type="int" name="NGXF">    32</i>
   <i type="int" name="NGYF">   300</i>
   <i type="int" name="NGZF">    40</i>
   <i type="logical" name="ADDGRID"> F  </i>
  </separator>
  <separator name="ionic" >
   <i type="int" name="NSW">     0</i>
   <i type="int" name="IBRION">    -1</i>
   <i type="int" name="MDALGO">     0</i>
   <i type="int" name="ISIF">     3</i>
   <i name="PSTRESS">      0.00000000</i>
   <i name="EDIFFG">     -0.02000000</i>
   <i type="int" name="NFREE">     1</i>
   <i name="POTIM">      0.50000000</i>
   <i name="SMASS">     -3.00000000</i>
   <i name="SCALEE">      1.00000000</i>
  </separator>
  <separator name="ionic md" >
   <i name="TEBEG">      0.00010000</i>
   <i name="TEEND">      0.00010000</i>
   <i type="int" name="NBLOCK">     1</i>
   <i type="int" name="KBLOCK">     1</i>
   <i type="int" name="NPACO">   256</i>
   <i name="APACO">     16.00000000</i>
  </separator>
  <separator name="symmetry" >
   <i type="int" name="ISYM">     2</i>
   <i name="SYMPREC">      0.00001000</i>
  </separator>
  <separator name="dos" >
   <i type="int" name="LORBIT">    11</i>
   <v name="RWIGS">     -1.00000000</v>
   <i type="int" name="NEDOS">  2000</i>
   <i name="EMIN">     10.00000000</i>
   <i name="EMAX">    -10.00000000</i>
   <i name="EFERMI">      0.00000000</i>
  </separator>
  <separator name="writing" >
   <i type="int" name="NWRITE">     2</i>
   <i type="logical" name="LWAVE"> T  </i>
   <i type="logical" name="LDOWNSAMPLE"> F  </i>
   <i type="logical" name="LCHARG"> T  </i>
   <i type="logical" name="LPARD"> F  </i>
   <i type="logical" name="LVTOT"> F  </i>
   <i type="logical" name="LVHAR"> T  </i>
   <i type="logical" name="LELF"> F  </i>
   <i type="logical" name="LOPTICS"> F  </i>
   <v name="STM">      0.00000000      0.00000000      0.00000000      0.00000000      0.00000000      0.00000000      0.00000000</v>
  </separator>
  <separator name="performance" >
   <i type="int" name="NPAR">     4</i>
   <i type="int" name="NSIM">     4</i>
   <i type="int" name="NBLK">    -1</i>
   <i type="logical" name="LPLANE"> T  </i>
   <i type="logical" name="LSCALAPACK"> T  </i>
   <i type="logical" name="LSCAAWARE"> F  </i>
   <i type="logical" name="LSCALU"> F  </i>
   <i type="logical" name="LASYNC"> F  </i>
   <i type="logical" name="LORBITALREAL"> F  </i>
  </separator>
  <separator name="miscellaneous" >
   <i type="int" name="IDIOT">     3</i>
   <i type="int" name="ISPECIAL">     0</i>
   <i type="logical" name="LMUSIC"> F  </i>
   <v name="POMASS">     30.97400000</v>
   <v name="DARWINR">      0.00000000</v>
   <v name="DARWINV">      1.00000000</v>
   <i type="logical" name="LCORR"> T  </i>
  </separator>
  <i type="logical" name="GGA_COMPAT"> T  </i>
  <i type="logical" name="LBERRY"> F  </i>
  <i type="int" name="ICORELEVEL">     1</i>
  <i type="int" name="CLNT">     1</i>
  <i type="int" name="CLN">     1</i>
  <i type="int" name="CLL">     0</i>
  <i name="CLZ">      0.00000000</i>
  <i type="logical" name="LDAU"> F  </i>
  <i type="int" name="I_CONSTRAINED_M">     0</i>
  <separator name="electronic exchange-correlation" >
   <i type="string" name="GGA">PE</i>
   <i type="int" name="VOSKOWN">     0</i>
   <i type="logical" name="LHFCALC"> F  </i>
   <i type="string" name="PRECFOCK"></i>
   <i type="logical" name="LSYMGRAD"> F  </i>
   <i type="logical" name="LHFONE"> F  </i>
   <i type="logical" name="LRHFCALC"> F  </i>
   <i type="logical" name="LTHOMAS"> F  </i>
   <i type="logical" name="LMODELHF"> F  </i>
   <i name="ENCUT4O">     -1.00000000</i>
   <i type="int" name="EXXOEP">     0</i>
   <i type="int" name="FOURORBIT">     0</i>
   <i name="AEXX">      0.00000000</i>
   <i name="HFALPHA">      0.00000000</i>
   <i name="MCALPHA">      0.00000000</i>
   <i name="ALDAX">      1.00000000</i>
   <i name="AGGAX">      1.00000000</i>
   <i name="ALDAC">      1.00000000</i>
   <i name="AGGAC">      1.00000000</i>
   <i type="int" name="NKREDX">     1</i>
   <i type="int" name="NKREDY">     1</i>
   <i type="int" name="NKREDZ">     1</i>
   <i type="logical" name="SHIFTRED"> F  </i>
   <i type="logical" name="ODDONLY"> F  </i>
   <i type="logical" name="EVENONLY"> F  </i>
   <i type="int" name="LMAXFOCK">     0</i>
   <i type="int" name="NMAXFOCKAE">     0</i>
   <i type="logical" name="LFOCKAEDFT"> F  </i>
   <i name="HFSCREEN">      0.00000000</i>
   <i name="HFSCREENC">      0.00000000</i>
   <i type="int" name="NBANDSGWLOW">     0</i>
  </separator>
  <separator name="vdW DFT" >
   <i type="logical" name="LUSE_VDW"> F  </i>
   <i name="Zab_VDW">     -0.84910000</i>
   <i name="PARAM1">      0.12340000</i>
   <i name="PARAM2">      1.00000000</i>
   <i name="PARAM3">      0.00000000</i>
  </separator>
  <separator name="model GW" >
   <i type="int" name="MODEL_GW">     0</i>
   <i name="MODEL_EPS0">     23.83979645</i>
   <i name="MODEL_ALPHA">      1.00000000</i>
  </separator>
  <separator name="linear response parameters" >
   <i type="logical" name="LEPSILON"> F  </i>
   <i type="logical" name="LRPA"> F  </i>
   <i type="logical" name="LNABLA"> F  </i>
   <i type="logical" name="LVEL"> F  </i>
   <i type="int" name="KINTER">     0</i>
   <i name="CSHIFT">      0.10000000</i>
   <i name="OMEGAMAX">     -1.00000000</i>
   <i name="DEG_THRESHOLD">      0.00200000</i>
   <i name="RTIME">     -0.10000000</i>
   <i name="WPLASMAI">      0.00000000</i>
   <v name="DFIELD">      0.00000000      0.00000000      0.00000000</v>
   <v name="WPLASMA">      0.00000000      0.00000000      0.00000000      0.00000000      0.00000000      0.00000000      0.00000000      0.00000000      0.00000000</v>
  </separator>
  <separator name="orbital magnetization" >
   <i type="logical" name="NUCIND"> F  </i>
   <v name="MAGPOS">      0.00000000      0.00000000      0.00000000</v>
   <i type="logical" name="LNICSALL"> T  </i>
   <i type="logical" name="ORBITALMAG"> F  </i>
   <i type="logical" name="LMAGBLOCH"> F  </i>
   <i type="logical" name="LCHIMAG"> F  </i>
   <i type="logical" name="LGAUGE"> T  </i>
   <i type="int" name="MAGATOM">     0</i>
   <v name="MAGDIPOL">      0.00000000      0.00000000      0.00000000</v>
   <v name="AVECCONST">      0.00000000      0.00000000      0.00000000</v>
  </separator>
  <separator name="response functions" >
   <i type="logical" name="LADDER"> F  </i>
   <i type="logical" name="LRPAFORCE"> F  </i>
   <i type="logical" name="LFXC"> F  </i>
   <i type="logical" name="LHARTREE"> T  </i>
   <i type="int" name="IBSE">     0</i>
   <v type="int" name="KPOINT">    -1     0     0     0</v>
   <i type="logical" name="LTCTE"> F  </i>
   <i type="logical" name="LTETE"> F  </i>
   <i type="logical" name="LTRIPLET"> F  </i>
   <i type="logical" name="LFXCEPS"> F  </i>
   <i type="logical" name="LFXHEG"> F  </i>
   <i type="int" name="NATURALO">     2</i>
   <i type="logical" name="L2ORDER"> F  </i>
   <i type="logical" name="LMP2LT"> F  </i>
   <i type="logical" name="LUSEW"> F  </i>
   <i name="ENCUTGW">     -2.00000000</i>
   <i name="ENCUTGWSOFT">     -2.00000000</i>
   <i name="ENCUTLF">     -1.00000000</i>
   <i type="int" name="LMAXMP2">    -1</i>
   <i name="SCISSOR">      0.00000000</i>
   <i type="int" name="NOMEGA">     0</i>
   <i type="int" name="NOMEGAR">     0</i>
   <i type="int" name="NBANDSGW">    -1</i>
   <i type="int" name="NBANDSO">    -1</i>
   <i type="int" name="NBANDSV">    -1</i>
   <i type="int" name="NELM">   200</i>
   <i type="int" name="NELMHF">     1</i>
   <i type="int" name="DIM">     3</i>
   <i type="int" name="ANTIRES">     0</i>
   <i name="OMEGAMAX">    -30.00000000</i>
   <i name="OMEGAMIN">    -30.00000000</i>
   <i name="OMEGATL">   -200.00000000</i>
   <i type="int" name="OMEGAGRID">   140</i>
   <i name="CSHIFT">     -0.10000000</i>
   <i type="logical" name="SELFENERGY"> F  </i>
   <i type="logical" name="LSPECTRAL"> F  </i>
   <i type="logical" name="LSPECTRALGW"> F  </i>
   <i type="logical" name="LSINGLES"> F  </i>
   <i type="logical" name="LFERMIGW"> F  </i>
   <i type="logical" name="ODDONLYGW"> F  </i>
   <i type="logical" name="EVENONLYGW"> F  </i>
   <i type="int" name="NKREDLFX">     1</i>
   <i type="int" name="NKREDLFY">     1</i>
   <i type="int" name="NKREDLFZ">     1</i>
   <i type="int" name="MAXMEM">  2800</i>
   <i type="int" name="TELESCOPE">     0</i>
   <i type="int" name="TAUPAR">     1</i>
   <i type="int" name="OMEGAPAR">    -1</i>
   <i name="LAMBDA">      1.00000000</i>
  </separator>
  <separator name="External order field" >
   <i name="OFIELD_KAPPA">      0.00000000</i>
   <v name="OFIELD_K">      0.00000000      0.00000000      0.00000000</v>
   <i name="OFIELD_Q6_NEAR">      0.00000000</i>
   <i name="OFIELD_Q6_FAR">      0.00000000</i>
   <i name="OFIELD_A">      0.00000000</i>
  </separator>
 </parameters>
 <atominfo>
  <atoms>      12 </atoms>
  <types>       1 </types>
  <array name="atoms" >
   <dimension dim="1">ion</dimension>
   <field type="string">element</field>
   <field type="int">atomtype</field>
   <set>
    <rc><c>P </c><c>   1</c></rc>
    <rc><c>P </c><c>   1</c></rc>
    <rc><c>P </c><c>   1</c></rc>
    <rc><c>P </c><c>   1</c></rc>
    <rc><c>P </c><c>   1</c></rc>
    <rc><c>P </c><c>   1</c></rc>
    <rc><c>P </c><c>   1</c></rc>
    <rc><c>P </c><c>   1</c></rc>
    <rc><c>P </c><c>   1</c></rc>
    <rc><c>P </c><c>   1</c></rc>
    <rc><c>P </c><c>   1</c></rc>
    <rc><c>P </c><c>   1</c></rc>
   </set>
  </array>
  <array name="atomtypes" >
   <dimension dim="1">type</dimension>
   <field type="int">atomspertype</field>
   <field type="string">element</field>
   <field>mass</field>
   <field>valence</field>
   <field type="string">pseudopotential</field>
   <set>
    <rc><c>  12</c><c>P </c><c>     30.97400000</c><c>      5.00000000</c><c>  PAW_PBE P 06Sep2000                   </c></rc>
   </set>
  </array>
 </atominfo>
 <structure name="initialpos" >
  <crystal>
   <varray name="basis" >
    <v>       3.34288600       0.00000000       0.00000000 </v>
    <v>       0.00000000      32.60240900       0.00000000 </v>
    <v>       0.00000000       0.00000000       4.37483100 </v>
   </varray>
   <i name="volume">    476.79592902 </i>
   <varray name="rec_basis" >
    <v>       0.29914272       0.00000000       0.00000000 </v>
    <v>       0.00000000       0.03067258       0.00000000 </v>
    <v>       0.00000000       0.00000000       0.22858026 </v>
   </varray>
  </crystal>
  <varray name="positions" >
   <v>       0.00000000       0.30672600       0.91892400 </v>
   <v>       0.50000000       0.30672600       0.58107600 </v>
   <v>       0.00000000       0.37246700       0.08107600 </v>
   <v>       0.50000000       0.37246700       0.41892400 </v>
   <v>       0.50000000       0.46712900       0.91892400 </v>
   <v>       0.00000000       0.46712900       0.58107600 </v>
   <v>       0.50000000       0.53287100       0.08107600 </v>
   <v>       0.00000000       0.53287100       0.41892400 </v>
   <v>       0.00000000       0.62753300       0.91892400 </v>
   <v>       0.50000000       0.62753300       0.58107600 </v>
   <v>       0.00000000       0.69327400       0.08107600 </v>
   <v>       0.50000000       0.69327400       0.41892400 </v>
  </varray>
 </structure>
 <calculation>
  <scstep>
   <time name="dav">    0.50    0.50</time>
   <time name="total">    0.59    0.60</time>
   <energy>
    <i name="alphaZ">     30.28014394 </i>
    <i name="ewald">  14973.24208224 </i>
    <i name="hartreedc"> -16928.93300519 </i>
    <i name="XCdc">     40.33409741 </i>
    <i name="pawpsdc">   1677.12035881 </i>
    <i name="pawaedc">  -1579.18296132 </i>
    <i name="eentropy">     -0.00094032 </i>
    <i name="bandstr">     -5.42197235 </i>
    <i name="atom">   2112.48687034 </i>
    <i name="e_fr_energy">    319.92467356 </i>
    <i name="e_wo_entrp">    319.92561388 </i>
    <i name="e_0_energy">    319.92514372 </i>
   </energy>
  </scstep>
  <scstep>
   <time name="dav">    0.59    0.59</time>
   <time name="total">    0.59    0.59</time>
   <energy>
    <i name="e_fr_energy">    -28.21898816 </i>
    <i name="e_wo_entrp">    -28.21898816 </i>
    <i name="e_0_energy">    -28.21898816 </i>
   </energy>
  </scstep>
  <scstep>
   <time name="dav">    0.54    0.55</time>
   <time name="total">    0.54    0.55</time>
   <energy>
    <i name="e_fr_energy">    -63.47461822 </i>
    <i name="e_wo_entrp">    -63.47461822 </i>
    <i name="e_0_energy">    -63.47461822 </i>
   </energy>
  </scstep>
  <scstep>
   <time name="dav">    0.62    0.62</time>
   <time name="total">    0.62    0.62</time>
   <energy>
    <i name="e_fr_energy">    -64.77190566 </i>
    <i name="e_wo_entrp">    -64.77190566 </i>
    <i name="e_0_energy">    -64.77190566 </i>
   </energy>
  </scstep>
  <scstep>
   <time name="dav">    0.60    0.60</time>
   <time name="total">    0.63    0.63</time>
   <energy>
    <i name="e_fr_energy">    -64.80215623 </i>
    <i name="e_wo_entrp">    -64.80215623 </i>
    <i name="e_0_energy">    -64.80215623 </i>
   </energy>
  </scstep>
  <scstep>
   <time name="dav">    0.56    0.56</time>
   <time name="total">    0.66    0.67</time>
   <energy>
    <i name="e_fr_energy">    -64.47725945 </i>
    <i name="e_wo_entrp">    -64.47725945 </i>
    <i name="e_0_energy">    -64.47725945 </i>
   </energy>
  </scstep>
  <scstep>
   <time name="dav">    0.54    0.54</time>
   <time name="total">    0.64    0.64</time>
   <energy>
    <i name="e_fr_energy">    -64.32921953 </i>
    <i name="e_wo_entrp">    -64.32921928 </i>
    <i name="e_0_energy">    -64.32921940 </i>
   </energy>
  </scstep>
  <scstep>
   <time name="dav">    0.61    0.61</time>
   <time name="total">    0.71    0.71</time>
   <energy>
    <i name="e_fr_energy">    -64.32897930 </i>
    <i name="e_wo_entrp">    -64.32897924 </i>
    <i name="e_0_energy">    -64.32897927 </i>
   </energy>
  </scstep>
  <scstep>
   <time name="dav">    0.60    0.60</time>
   <time name="total">    0.70    0.71</time>
   <energy>
    <i name="e_fr_energy">    -64.32894150 </i>
    <i name="e_wo_entrp">    -64.32894143 </i>
    <i name="e_0_energy">    -64.32894146 </i>
   </energy>
  </scstep>
  <scstep>
   <time name="dav">    0.54    0.54</time>
   <time name="total">    0.64    0.64</time>
   <energy>
    <i name="e_fr_energy">    -64.32871648 </i>
    <i name="e_wo_entrp">    -64.32871644 </i>
    <i name="e_0_energy">    -64.32871646 </i>
   </energy>
  </scstep>
  <scstep>
   <time name="dav">    0.55    0.55</time>
   <time name="total">    0.65    0.65</time>
   <energy>
    <i name="e_fr_energy">    -64.32849248 </i>
    <i name="e_wo_entrp">    -64.32849243 </i>
    <i name="e_0_energy">    -64.32849246 </i>
   </energy>
  </scstep>
  <scstep>
   <time name="dav">    0.54    0.55</time>
   <time name="total">    0.64    0.65</time>
   <energy>
    <i name="e_fr_energy">    -64.32858090 </i>
    <i name="e_wo_entrp">    -64.32858084 </i>
    <i name="e_0_energy">    -64.32858087 </i>
   </energy>
  </scstep>
  <scstep>
   <time name="dav">    0.51    0.51</time>
   <time name="total">    0.61    0.61</time>
   <energy>
    <i name="e_fr_energy">    -64.32876084 </i>
    <i name="e_wo_entrp">    -64.32876078 </i>
    <i name="e_0_energy">    -64.32876081 </i>
   </energy>
  </scstep>
  <scstep>
   <time name="dav">    0.47    0.47</time>
   <time name="total">    0.57    0.57</time>
   <energy>
    <i name="e_fr_energy">    -64.32888134 </i>
    <i name="e_wo_entrp">    -64.32888128 </i>
    <i name="e_0_energy">    -64.32888131 </i>
   </energy>
  </scstep>
  <scstep>
   <time name="dav">    0.40    0.40</time>
   <time name="total">    0.50    0.50</time>
   <energy>
    <i name="e_fr_energy">    -64.32892754 </i>
    <i name="e_wo_entrp">    -64.32892747 </i>
    <i name="e_0_energy">    -64.32892750 </i>
   </energy>
  </scstep>
  <scstep>
   <time name="dav">    0.47    0.47</time>
   <time name="total">    0.57    0.57</time>
   <energy>
    <i name="e_fr_energy">    -64.32916117 </i>
    <i name="e_wo_entrp">    -64.32916110 </i>
    <i name="e_0_energy">    -64.32916113 </i>
   </energy>
  </scstep>
  <scstep>
   <time name="dav">    0.42    0.42</time>
   <time name="total">    0.52    0.52</time>
   <energy>
    <i name="e_fr_energy">    -64.32917750 </i>
    <i name="e_wo_entrp">    -64.32917742 </i>
    <i name="e_0_energy">    -64.32917746 </i>
   </energy>
  </scstep>
  <scstep>
   <time name="dav">    0.39    0.40</time>
   <time name="total">    0.49    0.50</time>
   <energy>
    <i name="e_fr_energy">    -64.32919207 </i>
    <i name="e_wo_entrp">    -64.32919200 </i>
    <i name="e_0_energy">    -64.32919204 </i>
   </energy>
  </scstep>
  <scstep>
   <time name="dav">    0.41    0.41</time>
   <time name="total">    0.51    0.51</time>
   <energy>
    <i name="e_fr_energy">    -64.32924938 </i>
    <i name="e_wo_entrp">    -64.32924931 </i>
    <i name="e_0_energy">    -64.32924935 </i>
   </energy>
  </scstep>
  <scstep>
   <time name="dav">    0.39    0.39</time>
   <time name="total">    0.55    0.55</time>
   <energy>
    <i name="alphaZ">     30.28014394 </i>
    <i name="ewald">  14973.24208224 </i>
    <i name="hartreedc"> -16968.21007906 </i>
    <i name="XCdc">     43.13794028 </i>
    <i name="pawpsdc">   6295.31122969 </i>
    <i name="pawaedc">  -6198.29311988 </i>
    <i name="eentropy">     -0.00000007 </i>
    <i name="bandstr">   -352.28432288 </i>
    <i name="atom">   2112.48687034 </i>
    <i name="e_fr_energy">    -64.32925540 </i>
    <i name="e_wo_entrp">    -64.32925533 </i>
    <i name="e_0_energy">    -64.32925537 </i>
   </energy>
  </scstep>
  <structure>
   <crystal>
    <varray name="basis" >
     <v>       3.34288600       0.00000000       0.00000000 </v>
     <v>       0.00000000      32.60240900       0.00000000 </v>
     <v>       0.00000000       0.00000000       4.37483100 </v>
    </varray>
    <i name="volume">    476.79592902 </i>
    <varray name="rec_basis" >
     <v>       0.29914272       0.00000000       0.00000000 </v>
     <v>       0.00000000       0.03067258       0.00000000 </v>
     <v>       0.00000000       0.00000000       0.22858026 </v>
    </varray>
   </crystal>
   <varray name="positions" >
    <v>       0.00000000       0.30672600       0.91892400 </v>
    <v>       0.50000000       0.30672600       0.58107600 </v>
    <v>       0.00000000       0.37246700       0.08107600 </v>
    <v>       0.50000000       0.37246700       0.41892400 </v>
    <v>       0.50000000       0.46712900       0.91892400 </v>
    <v>       0.00000000       0.46712900       0.58107600 </v>
    <v>       0.50000000       0.53287100       0.08107600 </v>
    <v>       0.00000000       0.53287100       0.41892400 </v>
    <v>       0.00000000       0.62753300       0.91892400 </v>
    <v>       0.50000000       0.62753300       0.58107600 </v>
    <v>       0.00000000       0.69327400       0.08107600 </v>
    <v>       0.50000000       0.69327400       0.41892400 </v>
   </varray>
  </structure>
  <varray name="forces" >
   <v>       0.00000000       0.07713116      -0.03402200 </v>
   <v>       0.00000000       0.07713116       0.03402200 </v>
   <v>       0.00000000      -0.07183106      -0.02593851 </v>
   <v>       0.00000000      -0.07183106       0.02593851 </v>
   <v>       0.00000000       0.03257385       0.00684696 </v>
   <v>       0.00000000       0.03257385      -0.00684696 </v>
   <v>       0.00000000      -0.03257385      -0.00684696 </v>
   <v>       0.00000000      -0.03257385       0.00684696 </v>
   <v>       0.00000000       0.07183106       0.02593851 </v>
   <v>       0.00000000       0.07183106      -0.02593851 </v>
   <v>       0.00000000      -0.07713116       0.03402200 </v>
   <v>       0.00000000      -0.07713116      -0.03402200 </v>
  </varray>
  <varray name="stress" >
   <v>       0.94990164       0.00000000       0.00000000 </v>
   <v>       0.00000000      -3.26459393       0.00000000 </v>
   <v>       0.00000000       0.00000000       4.12045855 </v>
  </varray>
  <energy>
   <i name="e_fr_energy">    -66.50319492 </i>
   <i name="e_wo_entrp">    -66.50319489 </i>
   <i name="e_0_energy">     -0.00000007 </i>
  </energy>
  <time name="totalsc">   13.18   13.24</time>
  <eigenvalues>
   <array>
    <dimension dim="1">band</dimension>
    <dimension dim="2">kpoint</dimension>
    <dimension dim="3">spin</dimension>
    <field>eigene</field>
    <field>occ</field>
    <set>
     <set comment="spin 1">
      <set comment="kpoint 1">
       <r>  -14.8541    1.0000 </r>
       <r>  -14.7335    1.0000 </r>
       <r>  -14.6650    1.0000 </r>
       <r>  -12.3729    1.0000 </r>
       <r>  -12.1268    1.0000 </r>
       <r>  -11.9472    1.0000 </r>
       <r>   -8.6059    1.0000 </r>
       <r>   -8.5213    1.0000 </r>
       <r>   -8.4912    1.0000 </r>
       <r>   -5.9235    1.0000 </r>
       <r>   -5.5445    1.0000 </r>
       <r>   -5.1263    1.0000 </r>
       <r>   -4.5041    1.0000 </r>
       <r>   -4.5040    1.0000 </r>
       <r>   -4.1861    1.0000 </r>
       <r>   -4.1421    1.0000 </r>
       <r>   -3.9948    1.0000 </r>
       <r>   -3.9206    1.0000 </r>
       <r>   -3.3931    1.0000 </r>
       <r>   -3.2920    1.0000 </r>
       <r>   -3.2423    1.0000 </r>
       <r>   -1.8789    1.0000 </r>
       <r>   -1.7355    1.0000 </r>
       <r>   -1.6235    1.0000 </r>
       <r>   -1.5881    1.0000 </r>
       <r>   -1.5033    1.0000 </r>
       <r>   -1.1068    1.0000 </r>
       <r>   -0.2484    1.0000 </r>
       <r>    0.3558    1.0000 </r>
       <r>    0.9110    1.0000 </r>
       <r>    0.9704    0.0000 </r>
       <r>    1.4982    0.0000 </r>
       <r>    1.5244    0.0000 </r>
       <r>    1.6985    0.0000 </r>
       <r>    1.7068    0.0000 </r>
       <r>    1.8625    0.0000 </r>
       <r>    2.7314    0.0000 </r>
       <r>    2.9021    0.0000 </r>
       <r>    2.9727    0.0000 </r>
       <r>    3.6767    0.0000 </r>
      </set>
      <set comment="kpoint 2">
       <r>  -14.5306    1.0000 </r>
       <r>  -14.4112    1.0000 </r>
       <r>  -14.3439    1.0000 </r>
       <r>  -12.0362    1.0000 </r>
       <r>  -11.7915    1.0000 </r>
       <r>  -11.6130    1.0000 </r>
       <r>   -8.8987    1.0000 </r>
       <r>   -8.8370    1.0000 </r>
       <r>   -8.8310    1.0000 </r>
       <r>   -5.6505    1.0000 </r>
       <r>   -5.2791    1.0000 </r>
       <r>   -4.9717    1.0000 </r>
       <r>   -4.8902    1.0000 </r>
       <r>   -4.8840    1.0000 </r>
       <r>   -4.8521    1.0000 </r>
       <r>   -4.4278    1.0000 </r>
       <r>   -4.3544    1.0000 </r>
       <r>   -4.3435    1.0000 </r>
       <r>   -4.2179    1.0000 </r>
       <r>   -3.8733    1.0000 </r>
       <r>   -3.7293    1.0000 </r>
       <r>   -2.6607    1.0000 </r>
       <r>   -2.5099    1.0000 </r>
       <r>   -2.3448    1.0000 </r>
       <r>   -1.7408    1.0000 </r>
       <r>   -1.4692    1.0000 </r>
       <r>   -0.9668    1.0000 </r>
       <r>   -0.2124    1.0000 </r>
       <r>    0.1882    1.0000 </r>
       <r>    0.4583    1.0000 </r>
       <r>    1.2537    0.0000 </r>
       <r>    1.6584    0.0000 </r>
       <r>    1.8827    0.0000 </r>
       <r>    2.3402    0.0000 </r>
       <r>    2.5523    0.0000 </r>
       <r>    2.5764    0.0000 </r>
       <r>    3.7517    0.0000 </r>
       <r>    3.8775    0.0000 </r>
       <r>    3.9820    0.0000 </r>
       <r>    4.2639    0.0000 </r>
      </set>
      <set comment="kpoint 3">
       <r>  -13.5775    1.0000 </r>
       <r>  -13.4622    1.0000 </r>
       <r>  -13.3993    1.0000 </r>
       <r>  -11.0346    1.0000 </r>
       <r>  -10.7946    1.0000 </r>
       <r>  -10.6198    1.0000 </r>
       <r>  -10.2411    1.0000 </r>
       <r>  -10.1615    1.0000 </r>
       <r>  -10.1366    1.0000 </r>
       <r>   -7.2205    1.0000 </r>
       <r>   -7.0239    1.0000 </r>
       <r>   -6.8860    1.0000 </r>
       <r>   -4.9298    1.0000 </r>
       <r>   -4.9053    1.0000 </r>
       <r>   -4.8485    1.0000 </r>
       <r>   -4.8394    1.0000 </r>
       <r>   -4.6041    1.0000 </r>
       <r>   -4.3149    1.0000 </r>
       <r>   -3.4250    1.0000 </r>
       <r>   -3.1556    1.0000 </r>
       <r>   -3.0327    1.0000 </r>
       <r>   -2.6846    1.0000 </r>
       <r>   -2.3948    1.0000 </r>
       <r>   -2.1607    1.0000 </r>
       <r>   -1.7898    1.0000 </r>
       <r>   -1.5203    1.0000 </r>
       <r>   -1.1888    1.0000 </r>
       <r>   -0.8920    1.0000 </r>
       <r>   -0.7519    1.0000 </r>
       <r>   -0.6885    1.0000 </r>
       <r>    1.1124    0.0000 </r>
       <r>    1.1739    0.0000 </r>
       <r>    1.4357    0.0000 </r>
       <r>    2.0747    0.0000 </r>
       <r>    2.2864    0.0000 </r>
       <r>    2.6042    0.0000 </r>
       <r>    2.6472    0.0000 </r>
       <r>    2.6635    0.0000 </r>
       <r>    2.6706    0.0000 </r>
       <r>    2.9520    0.0000 </r>
      </set>
      <set comment="kpoint 4">
       <r>  -12.0669    1.0000 </r>
       <r>  -12.0669    1.0000 </r>
       <r>  -11.9616    1.0000 </r>
       <r>  -11.9616    1.0000 </r>
       <r>  -11.9094    1.0000 </r>
       <r>  -11.9094    1.0000 </r>
       <r>   -9.3992    1.0000 </r>
       <r>   -9.3992    1.0000 </r>
       <r>   -9.1702    1.0000 </r>
       <r>   -9.1702    1.0000 </r>
       <r>   -9.0043    1.0000 </r>
       <r>   -9.0043    1.0000 </r>
       <r>   -4.4689    1.0000 </r>
       <r>   -4.4689    1.0000 </r>
       <r>   -4.3342    1.0000 </r>
       <r>   -4.3342    1.0000 </r>
       <r>   -4.2888    1.0000 </r>
       <r>   -4.2888    1.0000 </r>
       <r>   -2.4664    1.0000 </r>
       <r>   -2.4664    1.0000 </r>
       <r>   -2.3924    1.0000 </r>
       <r>   -2.3924    1.0000 </r>
       <r>   -2.3920    1.0000 </r>
       <r>   -2.3920    1.0000 </r>
       <r>   -2.0094    1.0000 </r>
       <r>   -2.0094    1.0000 </r>
       <r>   -1.7385    1.0000 </r>
       <r>   -1.7385    1.0000 </r>
       <r>   -1.4865    1.0000 </r>
       <r>   -1.4865    1.0000 </r>
       <r>    1.6203    0.0000 </r>
       <r>    1.6203    0.0000 </r>
       <r>    1.6332    0.0000 </r>
       <r>    1.6332    0.0000 </r>
       <r>    1.7151    0.0000 </r>
       <r>    1.7151    0.0000 </r>
       <r>    2.1567    0.0000 </r>
       <r>    2.1580    0.0000 </r>
       <r>    2.1938    0.0000 </r>
       <r>    2.1963    0.0000 </r>
      </set>
      <set comment="kpoint 5">
       <r>  -14.5026    1.0000 </r>
       <r>  -14.3893    1.0000 </r>
       <r>  -14.3285    1.0000 </r>
       <r>  -12.5954    1.0000 </r>
       <r>  -12.4612    1.0000 </r>
       <r>  -12.4008    1.0000 </r>
       <r>   -9.0050    1.0000 </r>
       <r>   -8.8479    1.0000 </r>
       <r>   -8.7255    1.0000 </r>
       <r>   -6.9110    1.0000 </r>
       <r>   -6.6379    1.0000 </r>
       <r>   -6.4703    1.0000 </r>
       <r>   -4.5477    1.0000 </r>
       <r>   -4.0366    1.0000 </r>
       <r>   -3.3747    1.0000 </r>
       <r>   -3.1159    1.0000 </r>
       <r>   -3.0623    1.0000 </r>
       <r>   -3.0231    1.0000 </r>
       <r>   -2.9824    1.0000 </r>
       <r>   -2.7174    1.0000 </r>
       <r>   -2.7164    1.0000 </r>
       <r>   -1.8640    1.0000 </r>
       <r>   -1.7630    1.0000 </r>
       <r>   -1.7323    1.0000 </r>
       <r>   -1.7246    1.0000 </r>
       <r>   -1.0734    1.0000 </r>
       <r>   -0.4247    1.0000 </r>
       <r>   -0.2661    1.0000 </r>
       <r>   -0.2032    1.0000 </r>
       <r>   -0.0257    1.0000 </r>
       <r>    1.6809    0.0000 </r>
       <r>    2.0078    0.0000 </r>
       <r>    2.1159    0.0000 </r>
       <r>    2.2083    0.0000 </r>
       <r>    2.2585    0.0000 </r>
       <r>    2.2620    0.0000 </r>
       <r>    2.3698    0.0000 </r>
       <r>    2.7103    0.0000 </r>
       <r>    3.2537    0.0000 </r>
       <r>    3.3091    0.0000 </r>
      </set>
      <set comment="kpoint 6">
       <r>  -14.1839    1.0000 </r>
       <r>  -14.0717    1.0000 </r>
       <r>  -14.0122    1.0000 </r>
       <r>  -12.2795    1.0000 </r>
       <r>  -12.1497    1.0000 </r>
       <r>  -12.0934    1.0000 </r>
       <r>   -9.0388    1.0000 </r>
       <r>   -8.8861    1.0000 </r>
       <r>   -8.7731    1.0000 </r>
       <r>   -6.7951    1.0000 </r>
       <r>   -6.5652    1.0000 </r>
       <r>   -6.4188    1.0000 </r>
       <r>   -4.9851    1.0000 </r>
       <r>   -4.8442    1.0000 </r>
       <r>   -4.7154    1.0000 </r>
       <r>   -4.5105    1.0000 </r>
       <r>   -4.0364    1.0000 </r>
       <r>   -3.7226    1.0000 </r>
       <r>   -3.3120    1.0000 </r>
       <r>   -3.1964    1.0000 </r>
       <r>   -2.9129    1.0000 </r>
       <r>   -2.3346    1.0000 </r>
       <r>   -2.1638    1.0000 </r>
       <r>   -2.1422    1.0000 </r>
       <r>   -1.4977    1.0000 </r>
       <r>   -0.9501    1.0000 </r>
       <r>   -0.8596    1.0000 </r>
       <r>   -0.7293    1.0000 </r>
       <r>   -0.4591    1.0000 </r>
       <r>   -0.4109    1.0000 </r>
       <r>    2.0292    0.0000 </r>
       <r>    2.3142    0.0000 </r>
       <r>    2.5897    0.0000 </r>
       <r>    2.8649    0.0000 </r>
       <r>    3.0153    0.0000 </r>
       <r>    3.0671    0.0000 </r>
       <r>    3.3752    0.0000 </r>
       <r>    3.4996    0.0000 </r>
       <r>    3.6096    0.0000 </r>
       <r>    4.3232    0.0000 </r>
      </set>
      <set comment="kpoint 7">
       <r>  -13.2528    1.0000 </r>
       <r>  -13.1452    1.0000 </r>
       <r>  -13.0906    1.0000 </r>
       <r>  -11.4362    1.0000 </r>
       <r>  -11.3334    1.0000 </r>
       <r>  -11.3006    1.0000 </r>
       <r>   -9.7494    1.0000 </r>
       <r>   -9.5889    1.0000 </r>
       <r>   -9.4796    1.0000 </r>
       <r>   -7.5233    1.0000 </r>
       <r>   -7.4357    1.0000 </r>
       <r>   -7.4152    1.0000 </r>
       <r>   -5.8320    1.0000 </r>
       <r>   -5.6639    1.0000 </r>
       <r>   -5.5308    1.0000 </r>
       <r>   -4.7966    1.0000 </r>
       <r>   -4.7519    1.0000 </r>
       <r>   -4.6768    1.0000 </r>
       <r>   -3.3905    1.0000 </r>
       <r>   -3.3095    1.0000 </r>
       <r>   -3.1762    1.0000 </r>
       <r>   -2.5113    1.0000 </r>
       <r>   -2.3668    1.0000 </r>
       <r>   -2.3625    1.0000 </r>
       <r>   -2.2346    1.0000 </r>
       <r>   -1.8463    1.0000 </r>
       <r>   -1.3288    1.0000 </r>
       <r>   -0.9585    1.0000 </r>
       <r>   -0.6583    1.0000 </r>
       <r>   -0.6226    1.0000 </r>
       <r>    1.7049    0.0000 </r>
       <r>    1.8335    0.0000 </r>
       <r>    2.0284    0.0000 </r>
       <r>    2.5165    0.0000 </r>
       <r>    2.7070    0.0000 </r>
       <r>    2.9631    0.0000 </r>
       <r>    3.1543    0.0000 </r>
       <r>    3.3320    0.0000 </r>
       <r>    3.3740    0.0000 </r>
       <r>    3.8756    0.0000 </r>
      </set>
      <set comment="kpoint 8">
       <r>  -11.8539    1.0000 </r>
       <r>  -11.8539    1.0000 </r>
       <r>  -11.7616    1.0000 </r>
       <r>  -11.7616    1.0000 </r>
       <r>  -11.7235    1.0000 </r>
       <r>  -11.7235    1.0000 </r>
       <r>   -9.4301    1.0000 </r>
       <r>   -9.4301    1.0000 </r>
       <r>   -9.2720    1.0000 </r>
       <r>   -9.2720    1.0000 </r>
       <r>   -9.1809    1.0000 </r>
       <r>   -9.1809    1.0000 </r>
       <r>   -5.0166    1.0000 </r>
       <r>   -5.0166    1.0000 </r>
       <r>   -4.8267    1.0000 </r>
       <r>   -4.8267    1.0000 </r>
       <r>   -4.6752    1.0000 </r>
       <r>   -4.6752    1.0000 </r>
       <r>   -3.6853    1.0000 </r>
       <r>   -3.6853    1.0000 </r>
       <r>   -3.4407    1.0000 </r>
       <r>   -3.4407    1.0000 </r>
       <r>   -3.3077    1.0000 </r>
       <r>   -3.3077    1.0000 </r>
       <r>   -1.5480    1.0000 </r>
       <r>   -1.5480    1.0000 </r>
       <r>   -1.2042    1.0000 </r>
       <r>   -1.2042    1.0000 </r>
       <r>   -0.9086    1.0000 </r>
       <r>   -0.9086    1.0000 </r>
       <r>    2.0068    0.0000 </r>
       <r>    2.0068    0.0000 </r>
       <r>    2.3100    0.0000 </r>
       <r>    2.3100    0.0000 </r>
       <r>    2.4568    0.0000 </r>
       <r>    2.4568    0.0000 </r>
       <r>    3.1818    0.0000 </r>
       <r>    3.1818    0.0000 </r>
       <r>    3.4058    0.0000 </r>
       <r>    3.4058    0.0000 </r>
      </set>
      <set comment="kpoint 9">
       <r>  -13.5463    1.0000 </r>
       <r>  -13.5463    1.0000 </r>
       <r>  -13.4762    1.0000 </r>
       <r>  -13.4762    1.0000 </r>
       <r>  -13.4300    1.0000 </r>
       <r>  -13.4300    1.0000 </r>
       <r>   -8.5702    1.0000 </r>
       <r>   -8.5702    1.0000 </r>
       <r>   -8.2533    1.0000 </r>
       <r>   -8.2533    1.0000 </r>
       <r>   -7.9800    1.0000 </r>
       <r>   -7.9800    1.0000 </r>
       <r>   -3.5900    1.0000 </r>
       <r>   -3.5900    1.0000 </r>
       <r>   -2.8270    1.0000 </r>
       <r>   -2.8270    1.0000 </r>
       <r>   -2.4219    1.0000 </r>
       <r>   -2.4219    1.0000 </r>
       <r>   -2.3774    1.0000 </r>
       <r>   -2.3774    1.0000 </r>
       <r>   -2.3324    1.0000 </r>
       <r>   -2.3324    1.0000 </r>
       <r>   -2.0221    1.0000 </r>
       <r>   -2.0221    1.0000 </r>
       <r>   -0.7265    1.0000 </r>
       <r>   -0.7265    1.0000 </r>
       <r>   -0.5184    1.0000 </r>
       <r>   -0.5184    1.0000 </r>
       <r>   -0.4461    1.0000 </r>
       <r>   -0.4461    1.0000 </r>
       <r>    2.1912    0.0000 </r>
       <r>    2.1912    0.0000 </r>
       <r>    2.2352    0.0000 </r>
       <r>    2.2352    0.0000 </r>
       <r>    2.2875    0.0000 </r>
       <r>    2.2875    0.0000 </r>
       <r>    3.4192    0.0000 </r>
       <r>    3.4196    0.0000 </r>
       <r>    3.5673    0.0000 </r>
       <r>    3.5732    0.0000 </r>
      </set>
      <set comment="kpoint 10">
       <r>  -13.2403    1.0000 </r>
       <r>  -13.2403    1.0000 </r>
       <r>  -13.1703    1.0000 </r>
       <r>  -13.1703    1.0000 </r>
       <r>  -13.1251    1.0000 </r>
       <r>  -13.1251    1.0000 </r>
       <r>   -8.4254    1.0000 </r>
       <r>   -8.4254    1.0000 </r>
       <r>   -8.1349    1.0000 </r>
       <r>   -8.1349    1.0000 </r>
       <r>   -7.8945    1.0000 </r>
       <r>   -7.8945    1.0000 </r>
       <r>   -4.3691    1.0000 </r>
       <r>   -4.3691    1.0000 </r>
       <r>   -4.2627    1.0000 </r>
       <r>   -4.2627    1.0000 </r>
       <r>   -4.1648    1.0000 </r>
       <r>   -4.1648    1.0000 </r>
       <r>   -3.3499    1.0000 </r>
       <r>   -3.3499    1.0000 </r>
       <r>   -2.6364    1.0000 </r>
       <r>   -2.6364    1.0000 </r>
       <r>   -1.9667    1.0000 </r>
       <r>   -1.9667    1.0000 </r>
       <r>   -0.8106    1.0000 </r>
       <r>   -0.8106    1.0000 </r>
       <r>   -0.6434    1.0000 </r>
       <r>   -0.6434    1.0000 </r>
       <r>   -0.4902    1.0000 </r>
       <r>   -0.4902    1.0000 </r>
       <r>    2.8466    0.0000 </r>
       <r>    2.8466    0.0000 </r>
       <r>    2.9848    0.0000 </r>
       <r>    2.9848    0.0000 </r>
       <r>    3.0984    0.0000 </r>
       <r>    3.0984    0.0000 </r>
       <r>    3.5153    0.0000 </r>
       <r>    3.5153    0.0000 </r>
       <r>    3.9764    0.0000 </r>
       <r>    3.9764    0.0000 </r>
      </set>
      <set comment="kpoint 11">
       <r>  -12.3824    1.0000 </r>
       <r>  -12.3824    1.0000 </r>
       <r>  -12.3145    1.0000 </r>
       <r>  -12.3145    1.0000 </r>
       <r>  -12.2746    1.0000 </r>
       <r>  -12.2746    1.0000 </r>
       <r>   -8.6627    1.0000 </r>
       <r>   -8.6627    1.0000 </r>
       <r>   -8.5128    1.0000 </r>
       <r>   -8.5128    1.0000 </r>
       <r>   -8.4272    1.0000 </r>
       <r>   -8.4272    1.0000 </r>
       <r>   -5.7950    1.0000 </r>
       <r>   -5.7950    1.0000 </r>
       <r>   -5.5435    1.0000 </r>
       <r>   -5.5435    1.0000 </r>
       <r>   -5.3190    1.0000 </r>
       <r>   -5.3190    1.0000 </r>
       <r>   -3.4342    1.0000 </r>
       <r>   -3.4342    1.0000 </r>
       <r>   -3.0674    1.0000 </r>
       <r>   -3.0674    1.0000 </r>
       <r>   -2.7845    1.0000 </r>
       <r>   -2.7845    1.0000 </r>
       <r>   -1.8717    1.0000 </r>
       <r>   -1.8717    1.0000 </r>
       <r>   -1.3259    1.0000 </r>
       <r>   -1.3259    1.0000 </r>
       <r>   -0.8272    1.0000 </r>
       <r>   -0.8272    1.0000 </r>
       <r>    2.6935    0.0000 </r>
       <r>    2.6935    0.0000 </r>
       <r>    3.2805    0.0000 </r>
       <r>    3.2805    0.0000 </r>
       <r>    3.9581    0.0000 </r>
       <r>    3.9583    0.0000 </r>
       <r>    3.9853    0.0000 </r>
       <r>    3.9864    0.0000 </r>
       <r>    4.0880    0.0000 </r>
       <r>    4.1118    0.0000 </r>
      </set>
      <set comment="kpoint 12">
       <r>  -11.5660    1.0000 </r>
       <r>  -11.5660    1.0000 </r>
       <r>  -11.5096    1.0000 </r>
       <r>  -11.5096    1.0000 </r>
       <r>  -11.5094    1.0000 </r>
       <r>  -11.5094    1.0000 </r>
       <r>   -9.5292    1.0000 </r>
       <r>   -9.5292    1.0000 </r>
       <r>   -9.4653    1.0000 </r>
       <r>   -9.4653    1.0000 </r>
       <r>   -9.4640    1.0000 </r>
       <r>   -9.4640    1.0000 </r>
       <r>   -4.9600    1.0000 </r>
       <r>   -4.9600    1.0000 </r>
       <r>   -4.9451    1.0000 </r>
       <r>   -4.9451    1.0000 </r>
       <r>   -4.6701    1.0000 </r>
       <r>   -4.6701    1.0000 </r>
       <r>   -4.6163    1.0000 </r>
       <r>   -4.6163    1.0000 </r>
       <r>   -4.3743    1.0000 </r>
       <r>   -4.3743    1.0000 </r>
       <r>   -4.3736    1.0000 </r>
       <r>   -4.3736    1.0000 </r>
       <r>   -1.2333    1.0000 </r>
       <r>   -1.2333    1.0000 </r>
       <r>   -1.1789    1.0000 </r>
       <r>   -1.1789    1.0000 </r>
       <r>   -1.0504    1.0000 </r>
       <r>   -1.0504    1.0000 </r>
       <r>    2.6276    0.0000 </r>
       <r>    2.6276    0.0000 </r>
       <r>    2.7603    0.0000 </r>
       <r>    2.7603    0.0000 </r>
       <r>    2.8993    0.0000 </r>
       <r>    2.8993    0.0000 </r>
       <r>    4.8112    0.0000 </r>
       <r>    4.8248    0.0000 </r>
       <r>    4.8668    0.0000 </r>
       <r>    4.8692    0.0000 </r>
      </set>
     </set>
    </set>
   </array>
  </eigenvalues>
  <separator name="orbital magnetization" >
   <v name="MAGDIPOLOUT">      0.00000000      0.00000000      0.00000000</v>
  </separator>
  <dos>
   <i name="efermi">      0.94070156 </i>
   <total>
    <array>
     <dimension dim="1">gridpoints</dimension>
     <dimension dim="2">spin</dimension>
     <field>energy</field>
     <field>total</field>
     <field>integrated</field>
     <set>
      <set comment="spin 1">
       <r>   -15.8403     0.0000     0.0000 </r>
       <r>   -15.8294     0.0000     0.0000 </r>
       <r>   -15.8186     0.0000     0.0000 </r>
       <r>   -15.8077     0.0000     0.0000 </r>
       <r>   -15.7968     0.0000     0.0000 </r>
       <r>   -15.7860     0.0000     0.0000 </r>
       <r>   -15.7751     0.0000     0.0000 </r>
       <r>   -15.7643     0.0000     0.0000 </r>
       <r>   -15.7534     0.0000     0.0000 </r>
       <r>   -15.7426     0.0000     0.0000 </r>
       <r>   -15.7317     0.0000     0.0000 </r>
       <r>   -15.7209     0.0000     0.0000 </r>
       <r>   -15.7100     0.0000     0.0000 </r>
       <r>   -15.6992     0.0000     0.0000 </r>
       <r>   -15.6883     0.0000     0.0000 </r>
       <r>   -15.6775     0.0000     0.0000 </r>
       <r>   -15.6666     0.0000     0.0000 </r>
       <r>   -15.6558     0.0000     0.0000 </r>
       <r>   -15.6449     0.0000     0.0000 </r>
       <r>   -15.6341     0.0000     0.0000 </r>
       <r>   -15.6232     0.0000     0.0000 </r>
       <r>   -15.6123     0.0000     0.0000 </r>
       <r>   -15.6015     0.0000     0.0000 </r>
       <r>   -15.5906     0.0000     0.0000 </r>
       <r>   -15.5798     0.0000     0.0000 </r>
       <r>   -15.5689     0.0000     0.0000 </r>
       <r>   -15.5581     0.0000     0.0000 </r>
       <r>   -15.5472     0.0000     0.0000 </r>
       <r>   -15.5364     0.0000     0.0000 </r>
       <r>   -15.5255     0.0000     0.0000 </r>
       <r>   -15.5147     0.0000     0.0000 </r>
       <r>   -15.5038     0.0000     0.0000 </r>
       <r>   -15.4930     0.0000     0.0000 </r>
       <r>   -15.4821     0.0000     0.0000 </r>
       <r>   -15.4713     0.0000     0.0000 </r>
       <r>   -15.4604     0.0000     0.0000 </r>
       <r>   -15.4495     0.0000     0.0000 </r>
       <r>   -15.4387     0.0000     0.0000 </r>
       <r>   -15.4278     0.0000     0.0000 </r>
       <r>   -15.4170     0.0000     0.0000 </r>
       <r>   -15.4061     0.0000     0.0000 </r>
       <r>   -15.3953     0.0000     0.0000 </r>
       <r>   -15.3844     0.0000     0.0000 </r>
       <r>   -15.3736     0.0000     0.0000 </r>
       <r>   -15.3627     0.0000     0.0000 </r>
       <r>   -15.3519     0.0000     0.0000 </r>
       <r>   -15.3410     0.0000     0.0000 </r>
       <r>   -15.3302     0.0000     0.0000 </r>
       <r>   -15.3193     0.0000     0.0000 </r>
       <r>   -15.3085     0.0000     0.0000 </r>
       <r>   -15.2976     0.0000     0.0000 </r>
       <r>   -15.2867     0.0000     0.0000 </r>
       <r>   -15.2759     0.0000     0.0000 </r>
       <r>   -15.2650     0.0000     0.0000 </r>
       <r>   -15.2542     0.0000     0.0000 </r>
       <r>   -15.2433     0.0000     0.0000 </r>
       <r>   -15.2325     0.0000     0.0000 </r>
       <r>   -15.2216     0.0000     0.0000 </r>
       <r>   -15.2108     0.0000     0.0000 </r>
       <r>   -15.1999     0.0000     0.0000 </r>
       <r>   -15.1891     0.0000     0.0000 </r>
       <r>   -15.1782     0.0000     0.0000 </r>
       <r>   -15.1674     0.0000     0.0000 </r>
       <r>   -15.1565     0.0000     0.0000 </r>
       <r>   -15.1457     0.0000     0.0000 </r>
       <r>   -15.1348     0.0000     0.0000 </r>
       <r>   -15.1239     0.0000     0.0000 </r>
       <r>   -15.1131     0.0000     0.0000 </r>
       <r>   -15.1022     0.0000     0.0000 </r>
       <r>   -15.0914     0.0000     0.0000 </r>
       <r>   -15.0805     0.0000     0.0000 </r>
       <r>   -15.0697     0.0000     0.0000 </r>
       <r>   -15.0588     0.0000     0.0000 </r>
       <r>   -15.0480     0.0000     0.0000 </r>
       <r>   -15.0371     0.0000     0.0000 </r>
       <r>   -15.0263     0.0000     0.0000 </r>
       <r>   -15.0154     0.0000     0.0000 </r>
       <r>   -15.0046     0.0000     0.0000 </r>
       <r>   -14.9937     0.0000     0.0000 </r>
       <r>   -14.9829     0.0000     0.0000 </r>
       <r>   -14.9720     0.0000     0.0000 </r>
       <r>   -14.9611     0.0000     0.0000 </r>
       <r>   -14.9503     0.0000     0.0000 </r>
       <r>   -14.9394     0.0000     0.0000 </r>
       <r>   -14.9286     0.0000     0.0000 </r>
       <r>   -14.9177     0.0000     0.0000 </r>
       <r>   -14.9069     0.0000     0.0000 </r>
       <r>   -14.8960     0.0000     0.0000 </r>
       <r>   -14.8852     0.0000     0.0000 </r>
       <r>   -14.8743     0.0162     0.0002 </r>
       <r>   -14.8635     0.6939     0.0077 </r>
       <r>   -14.8526     3.7654     0.0486 </r>
       <r>   -14.8418     2.8912     0.0800 </r>
       <r>   -14.8309     0.3075     0.0833 </r>
       <r>   -14.8201     0.0040     0.0833 </r>
       <r>   -14.8092     0.0000     0.0833 </r>
       <r>   -14.7983     0.0000     0.0833 </r>
       <r>   -14.7875     0.0000     0.0833 </r>
       <r>   -14.7766     0.0000     0.0833 </r>
       <r>   -14.7658     0.0000     0.0833 </r>
       <r>   -14.7549     0.0093     0.0834 </r>
       <r>   -14.7441     0.5062     0.0889 </r>
       <r>   -14.7332     3.4383     0.1262 </r>
       <r>   -14.7224     3.2796     0.1618 </r>
       <r>   -14.7115     0.4376     0.1666 </r>
       <r>   -14.7007     0.0072     0.1667 </r>
       <r>   -14.6898     0.0017     0.1667 </r>
       <r>   -14.6790     0.1840     0.1687 </r>
       <r>   -14.6681     2.3504     0.1942 </r>
       <r>   -14.6573     4.0934     0.2386 </r>
       <r>   -14.6464     1.0160     0.2496 </r>
       <r>   -14.6356     0.0326     0.2500 </r>
       <r>   -14.6247     0.0001     0.2500 </r>
       <r>   -14.6138     0.0000     0.2500 </r>
       <r>   -14.6030     0.0000     0.2500 </r>
       <r>   -14.5921     0.0000     0.2500 </r>
       <r>   -14.5813     0.0000     0.2500 </r>
       <r>   -14.5704     0.0000     0.2500 </r>
       <r>   -14.5596     0.0003     0.2500 </r>
       <r>   -14.5487     0.0795     0.2509 </r>
       <r>   -14.5379     2.2555     0.2753 </r>
       <r>   -14.5270     8.3268     0.3657 </r>
       <r>   -14.5162     4.8076     0.4179 </r>
       <r>   -14.5053     5.3060     0.4755 </r>
       <r>   -14.4945     8.0412     0.5628 </r>
       <r>   -14.4836     1.8415     0.5827 </r>
       <r>   -14.4728     0.0542     0.5833 </r>
       <r>   -14.4619     0.0002     0.5833 </r>
       <r>   -14.4510     0.0000     0.5833 </r>
       <r>   -14.4402     0.0003     0.5833 </r>
       <r>   -14.4293     0.0777     0.5842 </r>
       <r>   -14.4185     2.2287     0.6084 </r>
       <r>   -14.4076     8.3800     0.6993 </r>
       <r>   -14.3968     6.5610     0.7705 </r>
       <r>   -14.3859     8.5769     0.8636 </r>
       <r>   -14.3751     4.5453     0.9129 </r>
       <r>   -14.3642     0.3713     0.9170 </r>
       <r>   -14.3534     1.3695     0.9318 </r>
       <r>   -14.3425     7.8593     1.0171 </r>
       <r>   -14.3317    10.5075     1.1312 </r>
       <r>   -14.3208     8.8258     1.2270 </r>
       <r>   -14.3100     2.0558     1.2493 </r>
       <r>   -14.2991     0.0661     1.2500 </r>
       <r>   -14.2882     0.0002     1.2500 </r>
       <r>   -14.2774     0.0000     1.2500 </r>
       <r>   -14.2665     0.0000     1.2500 </r>
       <r>   -14.2557     0.0000     1.2500 </r>
       <r>   -14.2448     0.0000     1.2500 </r>
       <r>   -14.2340     0.0000     1.2500 </r>
       <r>   -14.2231     0.0000     1.2500 </r>
       <r>   -14.2123     0.0009     1.2500 </r>
       <r>   -14.2014     0.1993     1.2522 </r>
       <r>   -14.1906     5.0702     1.3072 </r>
       <r>   -14.1797    16.8861     1.4905 </r>
       <r>   -14.1689     8.0365     1.5777 </r>
       <r>   -14.1580     0.5158     1.5833 </r>
       <r>   -14.1472     0.0039     1.5833 </r>
       <r>   -14.1363     0.0000     1.5833 </r>
       <r>   -14.1254     0.0000     1.5833 </r>
       <r>   -14.1146     0.0000     1.5833 </r>
       <r>   -14.1037     0.0001     1.5833 </r>
       <r>   -14.0929     0.0415     1.5838 </r>
       <r>   -14.0820     2.1567     1.6072 </r>
       <r>   -14.0712    14.0240     1.7594 </r>
       <r>   -14.0603    12.8264     1.8986 </r>
       <r>   -14.0495     1.6381     1.9164 </r>
       <r>   -14.0386     0.0287     1.9167 </r>
       <r>   -14.0278     0.4212     1.9213 </r>
       <r>   -14.0169     7.3190     2.0007 </r>
       <r>   -14.0061    17.0432     2.1857 </r>
       <r>   -13.9952     5.6761     2.2473 </r>
       <r>   -13.9844     0.2492     2.2500 </r>
       <r>   -13.9735     0.0013     2.2500 </r>
       <r>   -13.9626     0.0000     2.2500 </r>
       <r>   -13.9518     0.0000     2.2500 </r>
       <r>   -13.9409     0.0000     2.2500 </r>
       <r>   -13.9301     0.0000     2.2500 </r>
       <r>   -13.9192     0.0000     2.2500 </r>
       <r>   -13.9084     0.0000     2.2500 </r>
       <r>   -13.8975     0.0000     2.2500 </r>
       <r>   -13.8867     0.0000     2.2500 </r>
       <r>   -13.8758     0.0000     2.2500 </r>
       <r>   -13.8650     0.0000     2.2500 </r>
       <r>   -13.8541     0.0000     2.2500 </r>
       <r>   -13.8433     0.0000     2.2500 </r>
       <r>   -13.8324     0.0000     2.2500 </r>
       <r>   -13.8216     0.0000     2.2500 </r>
       <r>   -13.8107     0.0000     2.2500 </r>
       <r>   -13.7999     0.0000     2.2500 </r>
       <r>   -13.7890     0.0000     2.2500 </r>
       <r>   -13.7781     0.0000     2.2500 </r>
       <r>   -13.7673     0.0000     2.2500 </r>
       <r>   -13.7564     0.0000     2.2500 </r>
       <r>   -13.7456     0.0000     2.2500 </r>
       <r>   -13.7347     0.0000     2.2500 </r>
       <r>   -13.7239     0.0000     2.2500 </r>
       <r>   -13.7130     0.0000     2.2500 </r>
       <r>   -13.7022     0.0000     2.2500 </r>
       <r>   -13.6913     0.0000     2.2500 </r>
       <r>   -13.6805     0.0000     2.2500 </r>
       <r>   -13.6696     0.0000     2.2500 </r>
       <r>   -13.6588     0.0000     2.2500 </r>
       <r>   -13.6479     0.0000     2.2500 </r>
       <r>   -13.6371     0.0000     2.2500 </r>
       <r>   -13.6262     0.0000     2.2500 </r>
       <r>   -13.6153     0.0000     2.2500 </r>
       <r>   -13.6045     0.0010     2.2500 </r>
       <r>   -13.5936     0.1699     2.2519 </r>
       <r>   -13.5828     3.3049     2.2877 </r>
       <r>   -13.5719     8.5576     2.3806 </r>
       <r>   -13.5611     3.4511     2.4181 </r>
       <r>   -13.5502     4.3427     2.4652 </r>
       <r>   -13.5394     8.3930     2.5563 </r>
       <r>   -13.5285     2.4024     2.5824 </r>
       <r>   -13.5177     0.0898     2.5833 </r>
       <r>   -13.5068     0.0005     2.5833 </r>
       <r>   -13.4960     0.0393     2.5838 </r>
       <r>   -13.4851     1.5542     2.6006 </r>
       <r>   -13.4743     8.3981     2.6918 </r>
       <r>   -13.4634    11.4384     2.8159 </r>
       <r>   -13.4525     7.9550     2.9023 </r>
       <r>   -13.4417     2.0623     2.9246 </r>
       <r>   -13.4308     6.2556     2.9925 </r>
       <r>   -13.4200     7.2033     3.0707 </r>
       <r>   -13.4091     2.4112     3.0969 </r>
       <r>   -13.3983     7.3376     3.1765 </r>
       <r>   -13.3874     6.0619     3.2423 </r>
       <r>   -13.3766     0.6984     3.2499 </r>
       <r>   -13.3657     0.0099     3.2500 </r>
       <r>   -13.3549     0.0000     3.2500 </r>
       <r>   -13.3440     0.0000     3.2500 </r>
       <r>   -13.3332     0.0000     3.2500 </r>
       <r>   -13.3223     0.0000     3.2500 </r>
       <r>   -13.3115     0.0000     3.2500 </r>
       <r>   -13.3006     0.0000     3.2500 </r>
       <r>   -13.2897     0.0000     3.2500 </r>
       <r>   -13.2789     0.0034     3.2500 </r>
       <r>   -13.2680     0.4746     3.2552 </r>
       <r>   -13.2572     7.9821     3.3418 </r>
       <r>   -13.2463    22.7150     3.5884 </r>
       <r>   -13.2355    22.3809     3.8313 </r>
       <r>   -13.2246     7.4548     3.9122 </r>
       <r>   -13.2138     0.4120     3.9166 </r>
       <r>   -13.2029     0.0028     3.9167 </r>
       <r>   -13.1921     0.0321     3.9170 </r>
       <r>   -13.1812     1.8601     3.9372 </r>
       <r>   -13.1704    13.3904     4.0825 </r>
       <r>   -13.1595    14.1554     4.2362 </r>
       <r>   -13.1487    10.8950     4.3544 </r>
       <r>   -13.1378    17.7074     4.5466 </r>
       <r>   -13.1269    15.4865     4.7147 </r>
       <r>   -13.1161    15.5287     4.8832 </r>
       <r>   -13.1052     3.6016     4.9223 </r>
       <r>   -13.0944     8.6080     5.0157 </r>
       <r>   -13.0835    16.7305     5.1973 </r>
       <r>   -13.0727     4.6837     5.2481 </r>
       <r>   -13.0618     0.1709     5.2500 </r>
       <r>   -13.0510     0.0007     5.2500 </r>
       <r>   -13.0401     0.0000     5.2500 </r>
       <r>   -13.0293     0.0000     5.2500 </r>
       <r>   -13.0184     0.0000     5.2500 </r>
       <r>   -13.0076     0.0000     5.2500 </r>
       <r>   -12.9967     0.0000     5.2500 </r>
       <r>   -12.9859     0.0000     5.2500 </r>
       <r>   -12.9750     0.0000     5.2500 </r>
       <r>   -12.9641     0.0000     5.2500 </r>
       <r>   -12.9533     0.0000     5.2500 </r>
       <r>   -12.9424     0.0000     5.2500 </r>
       <r>   -12.9316     0.0000     5.2500 </r>
       <r>   -12.9207     0.0000     5.2500 </r>
       <r>   -12.9099     0.0000     5.2500 </r>
       <r>   -12.8990     0.0000     5.2500 </r>
       <r>   -12.8882     0.0000     5.2500 </r>
       <r>   -12.8773     0.0000     5.2500 </r>
       <r>   -12.8665     0.0000     5.2500 </r>
       <r>   -12.8556     0.0000     5.2500 </r>
       <r>   -12.8448     0.0000     5.2500 </r>
       <r>   -12.8339     0.0000     5.2500 </r>
       <r>   -12.8231     0.0000     5.2500 </r>
       <r>   -12.8122     0.0000     5.2500 </r>
       <r>   -12.8014     0.0000     5.2500 </r>
       <r>   -12.7905     0.0000     5.2500 </r>
       <r>   -12.7796     0.0000     5.2500 </r>
       <r>   -12.7688     0.0000     5.2500 </r>
       <r>   -12.7579     0.0000     5.2500 </r>
       <r>   -12.7471     0.0000     5.2500 </r>
       <r>   -12.7362     0.0000     5.2500 </r>
       <r>   -12.7254     0.0000     5.2500 </r>
       <r>   -12.7145     0.0000     5.2500 </r>
       <r>   -12.7037     0.0000     5.2500 </r>
       <r>   -12.6928     0.0000     5.2500 </r>
       <r>   -12.6820     0.0000     5.2500 </r>
       <r>   -12.6711     0.0000     5.2500 </r>
       <r>   -12.6603     0.0000     5.2500 </r>
       <r>   -12.6494     0.0000     5.2500 </r>
       <r>   -12.6386     0.0000     5.2500 </r>
       <r>   -12.6277     0.0000     5.2500 </r>
       <r>   -12.6168     0.0188     5.2502 </r>
       <r>   -12.6060     1.0191     5.2613 </r>
       <r>   -12.5951     6.8908     5.3361 </r>
       <r>   -12.5843     6.5441     5.4071 </r>
       <r>   -12.5734     0.8692     5.4165 </r>
       <r>   -12.5626     0.0143     5.4167 </r>
       <r>   -12.5517     0.0000     5.4167 </r>
       <r>   -12.5409     0.0000     5.4167 </r>
       <r>   -12.5300     0.0000     5.4167 </r>
       <r>   -12.5192     0.0000     5.4167 </r>
       <r>   -12.5083     0.0000     5.4167 </r>
       <r>   -12.4975     0.0000     5.4167 </r>
       <r>   -12.4866     0.0025     5.4167 </r>
       <r>   -12.4758     0.3028     5.4200 </r>
       <r>   -12.4649     4.3182     5.4668 </r>
       <r>   -12.4540     8.3466     5.5574 </r>
       <r>   -12.4432     2.3031     5.5824 </r>
       <r>   -12.4323     0.0828     5.5833 </r>
       <r>   -12.4215     0.0266     5.5836 </r>
       <r>   -12.4106     1.2351     5.5970 </r>
       <r>   -12.3998     7.5077     5.6785 </r>
       <r>   -12.3889    11.4080     5.8023 </r>
       <r>   -12.3781    19.3281     6.0121 </r>
       <r>   -12.3672    12.1213     6.1436 </r>
       <r>   -12.3564     2.0419     6.1658 </r>
       <r>   -12.3455     0.0786     6.1667 </r>
       <r>   -12.3347     0.0661     6.1674 </r>
       <r>   -12.3238     2.7978     6.1977 </r>
       <r>   -12.3130    15.0928     6.3616 </r>
       <r>   -12.3021    11.5456     6.4869 </r>
       <r>   -12.2912     2.9677     6.5191 </r>
       <r>   -12.2804    18.3903     6.7187 </r>
       <r>   -12.2695    31.5384     7.0610 </r>
       <r>   -12.2587     9.3128     7.1620 </r>
       <r>   -12.2478     0.4245     7.1666 </r>
       <r>   -12.2370     0.0025     7.1667 </r>
       <r>   -12.2261     0.0000     7.1667 </r>
       <r>   -12.2153     0.0000     7.1667 </r>
       <r>   -12.2044     0.0000     7.1667 </r>
       <r>   -12.1936     0.0000     7.1667 </r>
       <r>   -12.1827     0.0000     7.1667 </r>
       <r>   -12.1719     0.0265     7.1670 </r>
       <r>   -12.1610     1.6616     7.1850 </r>
       <r>   -12.1502    12.8928     7.3249 </r>
       <r>   -12.1393    14.2578     7.4797 </r>
       <r>   -12.1284     4.9591     7.5335 </r>
       <r>   -12.1176     3.8591     7.5754 </r>
       <r>   -12.1067     1.6175     7.5929 </r>
       <r>   -12.0959    10.2042     7.7037 </r>
       <r>   -12.0850    16.0451     7.8778 </r>
       <r>   -12.0742     5.8202     7.9410 </r>
       <r>   -12.0633     8.4285     8.0325 </r>
       <r>   -12.0525     4.5371     8.0817 </r>
       <r>   -12.0416     3.5487     8.1202 </r>
       <r>   -12.0308     8.5589     8.2131 </r>
       <r>   -12.0199     3.2358     8.2482 </r>
       <r>   -12.0091     0.1627     8.2500 </r>
       <r>   -11.9982     0.0010     8.2500 </r>
       <r>   -11.9874     0.0020     8.2500 </r>
       <r>   -11.9765     0.2651     8.2529 </r>
       <r>   -11.9657     4.1029     8.2974 </r>
       <r>   -11.9548     9.4864     8.4004 </r>
       <r>   -11.9439     6.6163     8.4722 </r>
       <r>   -11.9331     2.3927     8.4982 </r>
       <r>   -11.9222     0.6986     8.5057 </r>
       <r>   -11.9114     5.4412     8.5648 </r>
       <r>   -11.9005     7.7701     8.6491 </r>
       <r>   -11.8897     1.5747     8.6662 </r>
       <r>   -11.8788     0.0471     8.6667 </r>
       <r>   -11.8680     0.7005     8.6743 </r>
       <r>   -11.8571     9.2029     8.7742 </r>
       <r>   -11.8463    16.4641     8.9529 </r>
       <r>   -11.8354     4.1998     8.9985 </r>
       <r>   -11.8246     0.1388     9.0000 </r>
       <r>   -11.8137     0.0134     9.0001 </r>
       <r>   -11.8029     0.8178     9.0090 </r>
       <r>   -11.7920     6.4102     9.0786 </r>
       <r>   -11.7811     7.1015     9.1557 </r>
       <r>   -11.7703     4.3362     9.2027 </r>
       <r>   -11.7594    15.6814     9.3729 </r>
       <r>   -11.7486    10.6987     9.4890 </r>
       <r>   -11.7377     1.6799     9.5073 </r>
       <r>   -11.7269     9.0676     9.6057 </r>
       <r>   -11.7160    16.5277     9.7851 </r>
       <r>   -11.7052     4.3023     9.8318 </r>
       <r>   -11.6943     0.1452     9.8333 </r>
       <r>   -11.6835     0.0006     9.8333 </r>
       <r>   -11.6726     0.0000     9.8333 </r>
       <r>   -11.6618     0.0000     9.8333 </r>
       <r>   -11.6509     0.0000     9.8333 </r>
       <r>   -11.6401     0.0010     9.8333 </r>
       <r>   -11.6292     0.1685     9.8352 </r>
       <r>   -11.6183     3.2912     9.8709 </r>
       <r>   -11.6075     8.5557     9.9638 </r>
       <r>   -11.5966     3.1821     9.9983 </r>
       <r>   -11.5858     0.1958    10.0004 </r>
       <r>   -11.5749     1.5328    10.0170 </r>
       <r>   -11.5641     7.7194    10.1008 </r>
       <r>   -11.5532     5.5158    10.1607 </r>
       <r>   -11.5424     0.5439    10.1666 </r>
       <r>   -11.5315     0.0345    10.1670 </r>
       <r>   -11.5207     1.7168    10.1856 </r>
       <r>   -11.5098    13.0315    10.3270 </r>
       <r>   -11.4990    13.8340    10.4772 </r>
       <r>   -11.4881     2.0639    10.4996 </r>
       <r>   -11.4773     0.0385    10.5000 </r>
       <r>   -11.4664     0.0004    10.5000 </r>
       <r>   -11.4555     0.0940    10.5010 </r>
       <r>   -11.4447     3.4083    10.5380 </r>
       <r>   -11.4338    15.8201    10.7097 </r>
       <r>   -11.4230    10.4341    10.8230 </r>
       <r>   -11.4121     0.9457    10.8332 </r>
       <r>   -11.4013     0.0104    10.8333 </r>
       <r>   -11.3904     0.0000    10.8333 </r>
       <r>   -11.3796     0.0000    10.8333 </r>
       <r>   -11.3687     0.0000    10.8333 </r>
       <r>   -11.3579     0.0082    10.8334 </r>
       <r>   -11.3470     0.8169    10.8423 </r>
       <r>   -11.3362     9.8245    10.9489 </r>
       <r>   -11.3253    16.1705    11.1244 </r>
       <r>   -11.3145     4.5478    11.1738 </r>
       <r>   -11.3036     9.6566    11.2786 </r>
       <r>   -11.2927    16.3063    11.4556 </r>
       <r>   -11.2819     3.9695    11.4986 </r>
       <r>   -11.2710     0.1247    11.5000 </r>
       <r>   -11.2602     0.0004    11.5000 </r>
       <r>   -11.2493     0.0000    11.5000 </r>
       <r>   -11.2385     0.0000    11.5000 </r>
       <r>   -11.2276     0.0000    11.5000 </r>
       <r>   -11.2168     0.0000    11.5000 </r>
       <r>   -11.2059     0.0000    11.5000 </r>
       <r>   -11.1951     0.0000    11.5000 </r>
       <r>   -11.1842     0.0000    11.5000 </r>
       <r>   -11.1734     0.0000    11.5000 </r>
       <r>   -11.1625     0.0000    11.5000 </r>
       <r>   -11.1517     0.0000    11.5000 </r>
       <r>   -11.1408     0.0000    11.5000 </r>
       <r>   -11.1300     0.0000    11.5000 </r>
       <r>   -11.1191     0.0000    11.5000 </r>
       <r>   -11.1082     0.0000    11.5000 </r>
       <r>   -11.0974     0.0000    11.5000 </r>
       <r>   -11.0865     0.0000    11.5000 </r>
       <r>   -11.0757     0.0000    11.5000 </r>
       <r>   -11.0648     0.0001    11.5000 </r>
       <r>   -11.0540     0.0463    11.5005 </r>
       <r>   -11.0431     1.6900    11.5188 </r>
       <r>   -11.0323     7.8957    11.6045 </r>
       <r>   -11.0214     5.2408    11.6614 </r>
       <r>   -11.0106     0.4782    11.6666 </r>
       <r>   -10.9997     0.0053    11.6667 </r>
       <r>   -10.9889     0.0000    11.6667 </r>
       <r>   -10.9780     0.0000    11.6667 </r>
       <r>   -10.9672     0.0000    11.6667 </r>
       <r>   -10.9563     0.0000    11.6667 </r>
       <r>   -10.9454     0.0000    11.6667 </r>
       <r>   -10.9346     0.0000    11.6667 </r>
       <r>   -10.9237     0.0000    11.6667 </r>
       <r>   -10.9129     0.0000    11.6667 </r>
       <r>   -10.9020     0.0000    11.6667 </r>
       <r>   -10.8912     0.0000    11.6667 </r>
       <r>   -10.8803     0.0000    11.6667 </r>
       <r>   -10.8695     0.0000    11.6667 </r>
       <r>   -10.8586     0.0000    11.6667 </r>
       <r>   -10.8478     0.0000    11.6667 </r>
       <r>   -10.8369     0.0000    11.6667 </r>
       <r>   -10.8261     0.0001    11.6667 </r>
       <r>   -10.8152     0.0271    11.6670 </r>
       <r>   -10.8044     1.2557    11.6806 </r>
       <r>   -10.7935     7.3305    11.7601 </r>
       <r>   -10.7826     6.0413    11.8257 </r>
       <r>   -10.7718     0.6919    11.8332 </r>
       <r>   -10.7609     0.0097    11.8333 </r>
       <r>   -10.7501     0.0000    11.8333 </r>
       <r>   -10.7392     0.0000    11.8333 </r>
       <r>   -10.7284     0.0000    11.8333 </r>
       <r>   -10.7175     0.0000    11.8333 </r>
       <r>   -10.7067     0.0000    11.8333 </r>
       <r>   -10.6958     0.0000    11.8333 </r>
       <r>   -10.6850     0.0000    11.8333 </r>
       <r>   -10.6741     0.0000    11.8333 </r>
       <r>   -10.6633     0.0000    11.8333 </r>
       <r>   -10.6524     0.0000    11.8333 </r>
       <r>   -10.6416     0.0163    11.8335 </r>
       <r>   -10.6307     0.9369    11.8437 </r>
       <r>   -10.6198     6.7082    11.9165 </r>
       <r>   -10.6090     6.7314    11.9895 </r>
       <r>   -10.5981     0.9469    11.9998 </r>
       <r>   -10.5873     0.0166    12.0000 </r>
       <r>   -10.5764     0.0000    12.0000 </r>
       <r>   -10.5656     0.0000    12.0000 </r>
       <r>   -10.5547     0.0000    12.0000 </r>
       <r>   -10.5439     0.0000    12.0000 </r>
       <r>   -10.5330     0.0000    12.0000 </r>
       <r>   -10.5222     0.0000    12.0000 </r>
       <r>   -10.5113     0.0000    12.0000 </r>
       <r>   -10.5005     0.0000    12.0000 </r>
       <r>   -10.4896     0.0000    12.0000 </r>
       <r>   -10.4788     0.0000    12.0000 </r>
       <r>   -10.4679     0.0000    12.0000 </r>
       <r>   -10.4570     0.0000    12.0000 </r>
       <r>   -10.4462     0.0000    12.0000 </r>
       <r>   -10.4353     0.0000    12.0000 </r>
       <r>   -10.4245     0.0000    12.0000 </r>
       <r>   -10.4136     0.0000    12.0000 </r>
       <r>   -10.4028     0.0000    12.0000 </r>
       <r>   -10.3919     0.0000    12.0000 </r>
       <r>   -10.3811     0.0000    12.0000 </r>
       <r>   -10.3702     0.0000    12.0000 </r>
       <r>   -10.3594     0.0000    12.0000 </r>
       <r>   -10.3485     0.0000    12.0000 </r>
       <r>   -10.3377     0.0000    12.0000 </r>
       <r>   -10.3268     0.0000    12.0000 </r>
       <r>   -10.3160     0.0000    12.0000 </r>
       <r>   -10.3051     0.0000    12.0000 </r>
       <r>   -10.2942     0.0000    12.0000 </r>
       <r>   -10.2834     0.0000    12.0000 </r>
       <r>   -10.2725     0.0001    12.0000 </r>
       <r>   -10.2617     0.0281    12.0003 </r>
       <r>   -10.2508     1.2802    12.0142 </r>
       <r>   -10.2400     7.3698    12.0942 </r>
       <r>   -10.2291     5.9922    12.1592 </r>
       <r>   -10.2183     0.6767    12.1666 </r>
       <r>   -10.2074     0.0094    12.1667 </r>
       <r>   -10.1966     0.0000    12.1667 </r>
       <r>   -10.1857     0.0046    12.1667 </r>
       <r>   -10.1749     0.4418    12.1715 </r>
       <r>   -10.1640     5.0755    12.2266 </r>
       <r>   -10.1532     8.1398    12.3149 </r>
       <r>   -10.1423     4.8682    12.3678 </r>
       <r>   -10.1315     8.6025    12.4611 </r>
       <r>   -10.1206     3.3991    12.4980 </r>
       <r>   -10.1097     0.1802    12.5000 </r>
       <r>   -10.0989     0.0011    12.5000 </r>
       <r>   -10.0880     0.0000    12.5000 </r>
       <r>   -10.0772     0.0000    12.5000 </r>
       <r>   -10.0663     0.0000    12.5000 </r>
       <r>   -10.0555     0.0000    12.5000 </r>
       <r>   -10.0446     0.0000    12.5000 </r>
       <r>   -10.0338     0.0000    12.5000 </r>
       <r>   -10.0229     0.0000    12.5000 </r>
       <r>   -10.0121     0.0000    12.5000 </r>
       <r>   -10.0012     0.0000    12.5000 </r>
       <r>    -9.9904     0.0000    12.5000 </r>
       <r>    -9.9795     0.0000    12.5000 </r>
       <r>    -9.9687     0.0000    12.5000 </r>
       <r>    -9.9578     0.0000    12.5000 </r>
       <r>    -9.9469     0.0000    12.5000 </r>
       <r>    -9.9361     0.0000    12.5000 </r>
       <r>    -9.9252     0.0000    12.5000 </r>
       <r>    -9.9144     0.0000    12.5000 </r>
       <r>    -9.9035     0.0000    12.5000 </r>
       <r>    -9.8927     0.0000    12.5000 </r>
       <r>    -9.8818     0.0000    12.5000 </r>
       <r>    -9.8710     0.0000    12.5000 </r>
       <r>    -9.8601     0.0000    12.5000 </r>
       <r>    -9.8493     0.0000    12.5000 </r>
       <r>    -9.8384     0.0000    12.5000 </r>
       <r>    -9.8276     0.0000    12.5000 </r>
       <r>    -9.8167     0.0000    12.5000 </r>
       <r>    -9.8059     0.0000    12.5000 </r>
       <r>    -9.7950     0.0000    12.5000 </r>
       <r>    -9.7841     0.0000    12.5000 </r>
       <r>    -9.7733     0.0109    12.5001 </r>
       <r>    -9.7624     0.9760    12.5107 </r>
       <r>    -9.7516    10.5678    12.6254 </r>
       <r>    -9.7407    15.7386    12.7962 </r>
       <r>    -9.7299     3.3291    12.8324 </r>
       <r>    -9.7190     0.0900    12.8333 </r>
       <r>    -9.7082     0.0003    12.8333 </r>
       <r>    -9.6973     0.0000    12.8333 </r>
       <r>    -9.6865     0.0000    12.8333 </r>
       <r>    -9.6756     0.0000    12.8333 </r>
       <r>    -9.6648     0.0000    12.8333 </r>
       <r>    -9.6539     0.0000    12.8333 </r>
       <r>    -9.6431     0.0000    12.8333 </r>
       <r>    -9.6322     0.0000    12.8333 </r>
       <r>    -9.6213     0.0001    12.8333 </r>
       <r>    -9.6105     0.0347    12.8337 </r>
       <r>    -9.5996     1.9441    12.8548 </r>
       <r>    -9.5888    13.5769    13.0022 </r>
       <r>    -9.5779    13.3009    13.1465 </r>
       <r>    -9.5671     1.8249    13.1663 </r>
       <r>    -9.5562     0.0321    13.1667 </r>
       <r>    -9.5454     0.1662    13.1685 </r>
       <r>    -9.5345     3.2692    13.2040 </r>
       <r>    -9.5237     8.5561    13.2968 </r>
       <r>    -9.5128     3.2038    13.3316 </r>
       <r>    -9.5020     0.1830    13.3336 </r>
       <r>    -9.4911     1.5584    13.3505 </r>
       <r>    -9.4803    13.0194    13.4918 </r>
       <r>    -9.4694    21.5087    13.7252 </r>
       <r>    -9.4585    19.2588    13.9343 </r>
       <r>    -9.4477     5.9945    13.9993 </r>
       <r>    -9.4368     5.3182    14.0570 </r>
       <r>    -9.4260    16.8842    14.2403 </r>
       <r>    -9.4151     8.2351    14.3297 </r>
       <r>    -9.4043     3.9394    14.3724 </r>
       <r>    -9.3934     8.5534    14.4653 </r>
       <r>    -9.3826     3.0563    14.4984 </r>
       <r>    -9.3717     0.1447    14.5000 </r>
       <r>    -9.3609     0.0008    14.5000 </r>
       <r>    -9.3500     0.0000    14.5000 </r>
       <r>    -9.3392     0.0000    14.5000 </r>
       <r>    -9.3283     0.0000    14.5000 </r>
       <r>    -9.3175     0.0000    14.5000 </r>
       <r>    -9.3066     0.0000    14.5000 </r>
       <r>    -9.2958     0.0119    14.5001 </r>
       <r>    -9.2849     1.0309    14.5113 </r>
       <r>    -9.2740    10.8011    14.6285 </r>
       <r>    -9.2632    15.5912    14.7978 </r>
       <r>    -9.2523     3.1939    14.8324 </r>
       <r>    -9.2415     0.0835    14.8333 </r>
       <r>    -9.2306     0.0002    14.8333 </r>
       <r>    -9.2198     0.0000    14.8333 </r>
       <r>    -9.2089     0.0011    14.8333 </r>
       <r>    -9.1981     0.2341    14.8359 </r>
       <r>    -9.1872     5.6160    14.8968 </r>
       <r>    -9.1764    19.8152    15.1119 </r>
       <r>    -9.1655    16.0436    15.2860 </r>
       <r>    -9.1547     4.1398    15.3310 </r>
       <r>    -9.1438     0.2178    15.3333 </r>
       <r>    -9.1330     0.0015    15.3333 </r>
       <r>    -9.1221     0.0000    15.3333 </r>
       <r>    -9.1112     0.0000    15.3333 </r>
       <r>    -9.1004     0.0000    15.3333 </r>
       <r>    -9.0895     0.0000    15.3333 </r>
       <r>    -9.0787     0.0000    15.3333 </r>
       <r>    -9.0678     0.0006    15.3333 </r>
       <r>    -9.0570     0.1530    15.3350 </r>
       <r>    -9.0461     4.4219    15.3830 </r>
       <r>    -9.0353    16.5970    15.5631 </r>
       <r>    -9.0244     8.9680    15.6605 </r>
       <r>    -9.0136     3.7493    15.7011 </r>
       <r>    -9.0027    15.4711    15.8691 </r>
       <r>    -8.9919    10.9734    15.9882 </r>
       <r>    -8.9810     1.0782    15.9999 </r>
       <r>    -8.9702     0.0129    16.0000 </r>
       <r>    -8.9593     0.0000    16.0000 </r>
       <r>    -8.9484     0.0000    16.0000 </r>
       <r>    -8.9376     0.0000    16.0000 </r>
       <r>    -8.9267     0.0006    16.0000 </r>
       <r>    -8.9159     0.1171    16.0013 </r>
       <r>    -8.9050     2.8588    16.0323 </r>
       <r>    -8.8942    12.2614    16.1654 </r>
       <r>    -8.8833    19.9055    16.3814 </r>
       <r>    -8.8725    10.0944    16.4910 </r>
       <r>    -8.8616     1.2248    16.5043 </r>
       <r>    -8.8508     5.2823    16.5616 </r>
       <r>    -8.8399    14.5314    16.7193 </r>
       <r>    -8.8291    17.8076    16.9126 </r>
       <r>    -8.8182     7.4573    16.9935 </r>
       <r>    -8.8074     0.5908    16.9999 </r>
       <r>    -8.7965     0.0209    17.0002 </r>
       <r>    -8.7856     1.1548    17.0127 </r>
[...]
        <r>  0.0000  0.0049  0.0087  0.0246  0.0000  0.0000  0.0000  0.0000  0.0000 </r>
        <r>  0.0000  0.0160  0.0286  0.0074  0.0000  0.0000  0.0000  0.0000  0.0000 </r>
        <r>  0.0000  0.0049  0.0087  0.0246  0.0000  0.0000  0.0000  0.0000  0.0000 </r>
        <r>  0.0000  0.0160  0.0286  0.0074  0.0000  0.0000  0.0000  0.0000  0.0000 </r>
        <r>  0.0227  0.0032  0.0102  0.0018  0.0000  0.0000  0.0000  0.0000  0.0000 </r>
        <r>  0.0069  0.0010  0.0031  0.0060  0.0000  0.0000  0.0000  0.0000  0.0000 </r>
        <r>  0.0239  0.0053  0.0171  0.0034  0.0000  0.0000  0.0000  0.0000  0.0000 </r>
        <r>  0.0072  0.0016  0.0052  0.0113  0.0000  0.0000  0.0000  0.0000  0.0000 </r>
       </set>
       <set comment="band 25">
        <r>  0.0002  0.0027  0.0012  0.0000  0.0000  0.0000  0.0000  0.0000  0.0000 </r>
        <r>  0.0000  0.0000  0.0000  0.0008  0.0000  0.0000  0.0000  0.0000  0.0000 </r>
        <r>  0.0005  0.0001  0.0023  0.0000  0.0000  0.0000  0.0000  0.0000  0.0000 </r>
        <r>  0.0000  0.0000  0.0000  0.0015  0.0000  0.0000  0.0000  0.0000  0.0000 </r>
        <r>  0.0003  0.0022  0.0003  0.0189  0.0000  0.0000  0.0000  0.0000  0.0000 </r>
        <r>  0.0197  0.1509  0.0217  0.0003  0.0000  0.0000  0.0000  0.0000  0.0000 </r>
        <r>  0.0003  0.0022  0.0003  0.0189  0.0000  0.0000  0.0000  0.0000  0.0000 </r>
        <r>  0.0197  0.1509  0.0217  0.0003  0.0000  0.0000  0.0000  0.0000  0.0000 </r>
        <r>  0.0005  0.0001  0.0023  0.0000  0.0000  0.0000  0.0000  0.0000  0.0000 </r>
        <r>  0.0000  0.0000  0.0000  0.0015  0.0000  0.0000  0.0000  0.0000  0.0000 </r>
        <r>  0.0002  0.0027  0.0012  0.0000  0.0000  0.0000  0.0000  0.0000  0.0000 </r>
        <r>  0.0000  0.0000  0.0000  0.0008  0.0000  0.0000  0.0000  0.0000  0.0000 </r>
       </set>
       <set comment="band 26">
        <r>  0.0000  0.0000  0.0000  0.0008  0.0000  0.0000  0.0000  0.0000  0.0000 </r>
        <r>  0.0002  0.0027  0.0012  0.0000  0.0000  0.0000  0.0000  0.0000  0.0000 </r>
        <r>  0.0000  0.0000  0.0000  0.0015  0.0000  0.0000  0.0000  0.0000  0.0000 </r>
        <r>  0.0005  0.0001  0.0023  0.0000  0.0000  0.0000  0.0000  0.0000  0.0000 </r>
        <r>  0.0197  0.1509  0.0217  0.0003  0.0000  0.0000  0.0000  0.0000  0.0000 </r>
        <r>  0.0003  0.0022  0.0003  0.0189  0.0000  0.0000  0.0000  0.0000  0.0000 </r>
        <r>  0.0197  0.1509  0.0217  0.0003  0.0000  0.0000  0.0000  0.0000  0.0000 </r>
        <r>  0.0003  0.0022  0.0003  0.0189  0.0000  0.0000  0.0000  0.0000  0.0000 </r>
        <r>  0.0000  0.0000  0.0000  0.0015  0.0000  0.0000  0.0000  0.0000  0.0000 </r>
        <r>  0.0005  0.0001  0.0023  0.0000  0.0000  0.0000  0.0000  0.0000  0.0000 </r>
        <r>  0.0000  0.0000  0.0000  0.0008  0.0000  0.0000  0.0000  0.0000  0.0000 </r>
        <r>  0.0002  0.0027  0.0012  0.0000  0.0000  0.0000  0.0000  0.0000  0.0000 </r>
       </set>
       <set comment="band 27">
        <r>  0.0104  0.0646  0.0104  0.0018  0.0000  0.0000  0.0000  0.0000  0.0000 </r>
        <r>  0.0022  0.0134  0.0022  0.0089  0.0000  0.0000  0.0000  0.0000  0.0000 </r>
        <r>  0.0067  0.0645  0.0084  0.0015  0.0000  0.0000  0.0000  0.0000  0.0000 </r>
        <r>  0.0014  0.0133  0.0017  0.0075  0.0000  0.0000  0.0000  0.0000  0.0000 </r>
        <r>  0.0001  0.0004  0.0000  0.0000  0.0000  0.0000  0.0000  0.0000  0.0000 </r>
        <r>  0.0006  0.0017  0.0001  0.0000  0.0000  0.0000  0.0000  0.0000  0.0000 </r>
        <r>  0.0001  0.0004  0.0000  0.0000  0.0000  0.0000  0.0000  0.0000  0.0000 </r>
        <r>  0.0006  0.0017  0.0001  0.0000  0.0000  0.0000  0.0000  0.0000  0.0000 </r>
        <r>  0.0067  0.0645  0.0084  0.0015  0.0000  0.0000  0.0000  0.0000  0.0000 </r>
        <r>  0.0014  0.0133  0.0017  0.0075  0.0000  0.0000  0.0000  0.0000  0.0000 </r>
        <r>  0.0104  0.0646  0.0104  0.0018  0.0000  0.0000  0.0000  0.0000  0.0000 </r>
        <r>  0.0022  0.0134  0.0022  0.0089  0.0000  0.0000  0.0000  0.0000  0.0000 </r>
       </set>
       <set comment="band 28">
        <r>  0.0022  0.0134  0.0022  0.0089  0.0000  0.0000  0.0000  0.0000  0.0000 </r>
        <r>  0.0104  0.0646  0.0104  0.0018  0.0000  0.0000  0.0000  0.0000  0.0000 </r>
        <r>  0.0014  0.0133  0.0017  0.0075  0.0000  0.0000  0.0000  0.0000  0.0000 </r>
        <r>  0.0067  0.0645  0.0084  0.0015  0.0000  0.0000  0.0000  0.0000  0.0000 </r>
        <r>  0.0006  0.0017  0.0001  0.0000  0.0000  0.0000  0.0000  0.0000  0.0000 </r>
        <r>  0.0001  0.0004  0.0000  0.0000  0.0000  0.0000  0.0000  0.0000  0.0000 </r>
        <r>  0.0006  0.0017  0.0001  0.0000  0.0000  0.0000  0.0000  0.0000  0.0000 </r>
        <r>  0.0001  0.0004  0.0000  0.0000  0.0000  0.0000  0.0000  0.0000  0.0000 </r>
        <r>  0.0014  0.0133  0.0017  0.0075  0.0000  0.0000  0.0000  0.0000  0.0000 </r>
        <r>  0.0067  0.0645  0.0084  0.0015  0.0000  0.0000  0.0000  0.0000  0.0000 </r>
        <r>  0.0022  0.0134  0.0022  0.0089  0.0000  0.0000  0.0000  0.0000  0.0000 </r>
        <r>  0.0104  0.0646  0.0104  0.0018  0.0000  0.0000  0.0000  0.0000  0.0000 </r>
       </set>
       <set comment="band 29">
        <r>  0.0081  0.0568  0.0087  0.0030  0.0000  0.0000  0.0000  0.0000  0.0000 </r>
        <r>  0.0033  0.0230  0.0035  0.0075  0.0000  0.0000  0.0000  0.0000  0.0000 </r>
        <r>  0.0074  0.0569  0.0083  0.0029  0.0000  0.0000  0.0000  0.0000  0.0000 </r>
        <r>  0.0030  0.0230  0.0034  0.0072  0.0000  0.0000  0.0000  0.0000  0.0000 </r>
        <r>  0.0000  0.0002  0.0010  0.0015  0.0000  0.0000  0.0000  0.0000  0.0000 </r>
        <r>  0.0000  0.0006  0.0024  0.0006  0.0000  0.0000  0.0000  0.0000  0.0000 </r>
        <r>  0.0000  0.0002  0.0010  0.0015  0.0000  0.0000  0.0000  0.0000  0.0000 </r>
        <r>  0.0000  0.0006  0.0024  0.0006  0.0000  0.0000  0.0000  0.0000  0.0000 </r>
        <r>  0.0074  0.0569  0.0083  0.0029  0.0000  0.0000  0.0000  0.0000  0.0000 </r>
        <r>  0.0030  0.0230  0.0034  0.0072  0.0000  0.0000  0.0000  0.0000  0.0000 </r>
        <r>  0.0081  0.0568  0.0087  0.0030  0.0000  0.0000  0.0000  0.0000  0.0000 </r>
        <r>  0.0033  0.0230  0.0035  0.0075  0.0000  0.0000  0.0000  0.0000  0.0000 </r>
       </set>
       <set comment="band 30">
        <r>  0.0033  0.0230  0.0035  0.0075  0.0000  0.0000  0.0000  0.0000  0.0000 </r>
        <r>  0.0081  0.0568  0.0087  0.0030  0.0000  0.0000  0.0000  0.0000  0.0000 </r>
        <r>  0.0030  0.0230  0.0034  0.0072  0.0000  0.0000  0.0000  0.0000  0.0000 </r>
        <r>  0.0074  0.0569  0.0083  0.0029  0.0000  0.0000  0.0000  0.0000  0.0000 </r>
        <r>  0.0000  0.0006  0.0024  0.0006  0.0000  0.0000  0.0000  0.0000  0.0000 </r>
        <r>  0.0000  0.0002  0.0010  0.0015  0.0000  0.0000  0.0000  0.0000  0.0000 </r>
        <r>  0.0000  0.0006  0.0024  0.0006  0.0000  0.0000  0.0000  0.0000  0.0000 </r>
        <r>  0.0000  0.0002  0.0010  0.0015  0.0000  0.0000  0.0000  0.0000  0.0000 </r>
        <r>  0.0030  0.0230  0.0034  0.0072  0.0000  0.0000  0.0000  0.0000  0.0000 </r>
        <r>  0.0074  0.0569  0.0083  0.0029  0.0000  0.0000  0.0000  0.0000  0.0000 </r>
        <r>  0.0033  0.0230  0.0035  0.0075  0.0000  0.0000  0.0000  0.0000  0.0000 </r>
        <r>  0.0081  0.0568  0.0087  0.0030  0.0000  0.0000  0.0000  0.0000  0.0000 </r>
       </set>
       <set comment="band 31">
        <r>  0.0103  0.0430  0.0031  0.0003  0.0000  0.0000  0.0000  0.0000  0.0000 </r>
        <r>  0.0009  0.0037  0.0003  0.0029  0.0000  0.0000  0.0000  0.0000  0.0000 </r>
        <r>  0.0097  0.0442  0.0013  0.0002  0.0000  0.0000  0.0000  0.0000  0.0000 </r>
        <r>  0.0008  0.0039  0.0001  0.0021  0.0000  0.0000  0.0000  0.0000  0.0000 </r>
        <r>  0.0005  0.0005  0.0001  0.0004  0.0000  0.0000  0.0000  0.0000  0.0000 </r>
        <r>  0.0061  0.0053  0.0008  0.0000  0.0000  0.0000  0.0000  0.0000  0.0000 </r>
        <r>  0.0005  0.0005  0.0001  0.0004  0.0000  0.0000  0.0000  0.0000  0.0000 </r>
        <r>  0.0061  0.0053  0.0008  0.0000  0.0000  0.0000  0.0000  0.0000  0.0000 </r>
        <r>  0.0097  0.0442  0.0013  0.0002  0.0000  0.0000  0.0000  0.0000  0.0000 </r>
        <r>  0.0008  0.0039  0.0001  0.0021  0.0000  0.0000  0.0000  0.0000  0.0000 </r>
        <r>  0.0103  0.0430  0.0031  0.0003  0.0000  0.0000  0.0000  0.0000  0.0000 </r>
        <r>  0.0009  0.0037  0.0003  0.0029  0.0000  0.0000  0.0000  0.0000  0.0000 </r>
       </set>
       <set comment="band 32">
        <r>  0.0009  0.0037  0.0003  0.0029  0.0000  0.0000  0.0000  0.0000  0.0000 </r>
        <r>  0.0103  0.0430  0.0031  0.0003  0.0000  0.0000  0.0000  0.0000  0.0000 </r>
        <r>  0.0008  0.0039  0.0001  0.0021  0.0000  0.0000  0.0000  0.0000  0.0000 </r>
        <r>  0.0097  0.0442  0.0013  0.0002  0.0000  0.0000  0.0000  0.0000  0.0000 </r>
        <r>  0.0061  0.0053  0.0008  0.0000  0.0000  0.0000  0.0000  0.0000  0.0000 </r>
        <r>  0.0005  0.0005  0.0001  0.0004  0.0000  0.0000  0.0000  0.0000  0.0000 </r>
        <r>  0.0061  0.0053  0.0008  0.0000  0.0000  0.0000  0.0000  0.0000  0.0000 </r>
        <r>  0.0005  0.0005  0.0001  0.0004  0.0000  0.0000  0.0000  0.0000  0.0000 </r>
        <r>  0.0008  0.0039  0.0001  0.0021  0.0000  0.0000  0.0000  0.0000  0.0000 </r>
        <r>  0.0097  0.0442  0.0013  0.0002  0.0000  0.0000  0.0000  0.0000  0.0000 </r>
        <r>  0.0009  0.0037  0.0003  0.0029  0.0000  0.0000  0.0000  0.0000  0.0000 </r>
        <r>  0.0103  0.0430  0.0031  0.0003  0.0000  0.0000  0.0000  0.0000  0.0000 </r>
       </set>
       <set comment="band 33">
        <r>  0.0002  0.0072  0.0002  0.0001  0.0000  0.0000  0.0000  0.0000  0.0000 </r>
        <r>  0.0002  0.0069  0.0002  0.0001  0.0000  0.0000  0.0000  0.0000  0.0000 </r>
        <r>  0.0045  0.0000  0.0020  0.0009  0.0000  0.0000  0.0000  0.0000  0.0000 </r>
        <r>  0.0043  0.0000  0.0019  0.0009  0.0000  0.0000  0.0000  0.0000  0.0000 </r>
        <r>  0.0109  0.0476  0.0025  0.0030  0.0000  0.0000  0.0000  0.0000  0.0000 </r>
        <r>  0.0112  0.0493  0.0026  0.0029  0.0000  0.0000  0.0000  0.0000  0.0000 </r>
        <r>  0.0109  0.0476  0.0025  0.0030  0.0000  0.0000  0.0000  0.0000  0.0000 </r>
        <r>  0.0112  0.0493  0.0026  0.0029  0.0000  0.0000  0.0000  0.0000  0.0000 </r>
        <r>  0.0045  0.0000  0.0020  0.0009  0.0000  0.0000  0.0000  0.0000  0.0000 </r>
        <r>  0.0043  0.0000  0.0019  0.0009  0.0000  0.0000  0.0000  0.0000  0.0000 </r>
        <r>  0.0002  0.0072  0.0002  0.0001  0.0000  0.0000  0.0000  0.0000  0.0000 </r>
        <r>  0.0002  0.0069  0.0002  0.0001  0.0000  0.0000  0.0000  0.0000  0.0000 </r>
       </set>
       <set comment="band 34">
        <r>  0.0002  0.0069  0.0002  0.0001  0.0000  0.0000  0.0000  0.0000  0.0000 </r>
        <r>  0.0002  0.0072  0.0002  0.0001  0.0000  0.0000  0.0000  0.0000  0.0000 </r>
        <r>  0.0043  0.0000  0.0019  0.0009  0.0000  0.0000  0.0000  0.0000  0.0000 </r>
        <r>  0.0045  0.0000  0.0020  0.0009  0.0000  0.0000  0.0000  0.0000  0.0000 </r>
        <r>  0.0112  0.0493  0.0026  0.0029  0.0000  0.0000  0.0000  0.0000  0.0000 </r>
        <r>  0.0109  0.0476  0.0025  0.0030  0.0000  0.0000  0.0000  0.0000  0.0000 </r>
        <r>  0.0112  0.0493  0.0026  0.0029  0.0000  0.0000  0.0000  0.0000  0.0000 </r>
        <r>  0.0109  0.0476  0.0025  0.0030  0.0000  0.0000  0.0000  0.0000  0.0000 </r>
        <r>  0.0043  0.0000  0.0019  0.0009  0.0000  0.0000  0.0000  0.0000  0.0000 </r>
        <r>  0.0045  0.0000  0.0020  0.0009  0.0000  0.0000  0.0000  0.0000  0.0000 </r>
        <r>  0.0002  0.0069  0.0002  0.0001  0.0000  0.0000  0.0000  0.0000  0.0000 </r>
        <r>  0.0002  0.0072  0.0002  0.0001  0.0000  0.0000  0.0000  0.0000  0.0000 </r>
       </set>
       <set comment="band 35">
        <r>  0.0041  0.0178  0.0007  0.0018  0.0000  0.0000  0.0000  0.0000  0.0000 </r>
        <r>  0.0085  0.0369  0.0015  0.0009  0.0000  0.0000  0.0000  0.0000  0.0000 </r>
        <r>  0.0043  0.0175  0.0015  0.0027  0.0000  0.0000  0.0000  0.0000  0.0000 </r>
        <r>  0.0088  0.0363  0.0032  0.0013  0.0000  0.0000  0.0000  0.0000  0.0000 </r>
        <r>  0.0018  0.0049  0.0025  0.0005  0.0000  0.0000  0.0000  0.0000  0.0000 </r>
        <r>  0.0009  0.0024  0.0012  0.0010  0.0000  0.0000  0.0000  0.0000  0.0000 </r>
        <r>  0.0018  0.0049  0.0025  0.0005  0.0000  0.0000  0.0000  0.0000  0.0000 </r>
        <r>  0.0009  0.0024  0.0012  0.0010  0.0000  0.0000  0.0000  0.0000  0.0000 </r>
        <r>  0.0043  0.0175  0.0015  0.0027  0.0000  0.0000  0.0000  0.0000  0.0000 </r>
        <r>  0.0088  0.0363  0.0032  0.0013  0.0000  0.0000  0.0000  0.0000  0.0000 </r>
        <r>  0.0041  0.0178  0.0007  0.0018  0.0000  0.0000  0.0000  0.0000  0.0000 </r>
        <r>  0.0085  0.0369  0.0015  0.0009  0.0000  0.0000  0.0000  0.0000  0.0000 </r>
       </set>
       <set comment="band 36">
        <r>  0.0085  0.0369  0.0015  0.0009  0.0000  0.0000  0.0000  0.0000  0.0000 </r>
        <r>  0.0041  0.0178  0.0007  0.0018  0.0000  0.0000  0.0000  0.0000  0.0000 </r>
        <r>  0.0088  0.0363  0.0032  0.0013  0.0000  0.0000  0.0000  0.0000  0.0000 </r>
        <r>  0.0043  0.0175  0.0015  0.0027  0.0000  0.0000  0.0000  0.0000  0.0000 </r>
        <r>  0.0009  0.0024  0.0012  0.0010  0.0000  0.0000  0.0000  0.0000  0.0000 </r>
        <r>  0.0018  0.0049  0.0025  0.0005  0.0000  0.0000  0.0000  0.0000  0.0000 </r>
        <r>  0.0009  0.0024  0.0012  0.0010  0.0000  0.0000  0.0000  0.0000  0.0000 </r>
        <r>  0.0018  0.0049  0.0025  0.0005  0.0000  0.0000  0.0000  0.0000  0.0000 </r>
        <r>  0.0088  0.0363  0.0032  0.0013  0.0000  0.0000  0.0000  0.0000  0.0000 </r>
        <r>  0.0043  0.0175  0.0015  0.0027  0.0000  0.0000  0.0000  0.0000  0.0000 </r>
        <r>  0.0085  0.0369  0.0015  0.0009  0.0000  0.0000  0.0000  0.0000  0.0000 </r>
        <r>  0.0041  0.0178  0.0007  0.0018  0.0000  0.0000  0.0000  0.0000  0.0000 </r>
       </set>
       <set comment="band 37">
        <r>  0.0000  0.0001  0.0002  0.0004  0.0000  0.0000  0.0000  0.0000  0.0000 </r>
        <r>  0.0000  0.0000  0.0008  0.0001  0.0000  0.0000  0.0000  0.0000  0.0000 </r>
        <r>  0.0000  0.0002  0.0008  0.0004  0.0000  0.0000  0.0000  0.0000  0.0000 </r>
        <r>  0.0000  0.0000  0.0010  0.0001  0.0000  0.0000  0.0000  0.0000  0.0000 </r>
        <r>  0.0001  0.0000  0.0016  0.0656  0.0000  0.0000  0.0000  0.0000  0.0000 </r>
        <r>  0.0062  0.0033  0.1461  0.0008  0.0000  0.0000  0.0000  0.0000  0.0000 </r>
        <r>  0.0001  0.0000  0.0018  0.0656  0.0000  0.0000  0.0000  0.0000  0.0000 </r>
        <r>  0.0062  0.0033  0.1465  0.0008  0.0000  0.0000  0.0000  0.0000  0.0000 </r>
        <r>  0.0000  0.0003  0.0003  0.0006  0.0000  0.0000  0.0000  0.0000  0.0000 </r>
        <r>  0.0001  0.0001  0.0013  0.0000  0.0000  0.0000  0.0000  0.0000  0.0000 </r>
        <r>  0.0000  0.0001  0.0000  0.0006  0.0000  0.0000  0.0000  0.0000  0.0000 </r>
        <r>  0.0001  0.0001  0.0012  0.0000  0.0000  0.0000  0.0000  0.0000  0.0000 </r>
       </set>
       <set comment="band 38">
        <r>  0.0002  0.0001  0.0040  0.0055  0.0000  0.0000  0.0000  0.0000  0.0000 </r>
        <r>  0.0004  0.0002  0.0117  0.0019  0.0000  0.0000  0.0000  0.0000  0.0000 </r>
        <r>  0.0002  0.0001  0.0047  0.0058  0.0000  0.0000  0.0000  0.0000  0.0000 </r>
        <r>  0.0006  0.0002  0.0150  0.0019  0.0000  0.0000  0.0000  0.0000  0.0000 </r>
        <r>  0.0049  0.0032  0.1107  0.0005  0.0000  0.0000  0.0000  0.0000  0.0000 </r>
        <r>  0.0001  0.0001  0.0011  0.0499  0.0000  0.0000  0.0000  0.0000  0.0000 </r>
        <r>  0.0049  0.0032  0.1102  0.0005  0.0000  0.0000  0.0000  0.0000  0.0000 </r>
        <r>  0.0001  0.0001  0.0012  0.0499  0.0000  0.0000  0.0000  0.0000  0.0000 </r>
        <r>  0.0006  0.0003  0.0141  0.0033  0.0000  0.0000  0.0000  0.0000  0.0000 </r>
        <r>  0.0003  0.0000  0.0095  0.0062  0.0000  0.0000  0.0000  0.0000  0.0000 </r>
        <r>  0.0006  0.0003  0.0126  0.0032  0.0000  0.0000  0.0000  0.0000  0.0000 </r>
        <r>  0.0002  0.0000  0.0066  0.0059  0.0000  0.0000  0.0000  0.0000  0.0000 </r>
       </set>
       <set comment="band 39">
        <r>  0.0039  0.0028  0.0820  0.0010  0.0000  0.0000  0.0000  0.0000  0.0000 </r>
        <r>  0.0001  0.0000  0.0021  0.0375  0.0000  0.0000  0.0000  0.0000  0.0000 </r>
        <r>  0.0043  0.0024  0.0877  0.0011  0.0000  0.0000  0.0000  0.0000  0.0000 </r>
        <r>  0.0001  0.0000  0.0026  0.0399  0.0000  0.0000  0.0000  0.0000  0.0000 </r>
        <r>  0.0000  0.0000  0.0000  0.0000  0.0000  0.0000  0.0000  0.0000  0.0000 </r>
        <r>  0.0000  0.0001  0.0002  0.0000  0.0000  0.0000  0.0000  0.0000  0.0000 </r>
        <r>  0.0000  0.0000  0.0000  0.0000  0.0000  0.0000  0.0000  0.0000  0.0000 </r>
        <r>  0.0000  0.0000  0.0001  0.0000  0.0000  0.0000  0.0000  0.0000  0.0000 </r>
        <r>  0.0027  0.0015  0.0507  0.0052  0.0000  0.0000  0.0000  0.0000  0.0000 </r>
        <r>  0.0005  0.0003  0.0119  0.0234  0.0000  0.0000  0.0000  0.0000  0.0000 </r>
        <r>  0.0023  0.0018  0.0485  0.0049  0.0000  0.0000  0.0000  0.0000  0.0000 </r>
        <r>  0.0005  0.0003  0.0105  0.0219  0.0000  0.0000  0.0000  0.0000  0.0000 </r>
       </set>
       <set comment="band 40">
        <r>  0.0015  0.0008  0.0338  0.0189  0.0000  0.0000  0.0000  0.0000  0.0000 </r>
        <r>  0.0019  0.0012  0.0408  0.0160  0.0000  0.0000  0.0000  0.0000  0.0000 </r>
        <r>  0.0015  0.0008  0.0392  0.0200  0.0000  0.0000  0.0000  0.0000  0.0000 </r>
        <r>  0.0020  0.0011  0.0451  0.0167  0.0000  0.0000  0.0000  0.0000  0.0000 </r>
        <r>  0.0000  0.0001  0.0001  0.0000  0.0000  0.0000  0.0000  0.0000  0.0000 </r>
        <r>  0.0000  0.0002  0.0001  0.0000  0.0000  0.0000  0.0000  0.0000  0.0000 </r>
        <r>  0.0000  0.0001  0.0001  0.0000  0.0000  0.0000  0.0000  0.0000  0.0000 </r>
        <r>  0.0000  0.0003  0.0001  0.0000  0.0000  0.0000  0.0000  0.0000  0.0000 </r>
        <r>  0.0018  0.0010  0.0474  0.0122  0.0000  0.0000  0.0000  0.0000  0.0000 </r>
        <r>  0.0012  0.0007  0.0275  0.0204  0.0000  0.0000  0.0000  0.0000  0.0000 </r>
        <r>  0.0018  0.0010  0.0412  0.0116  0.0000  0.0000  0.0000  0.0000  0.0000 </r>
        <r>  0.0012  0.0008  0.0249  0.0195  0.0000  0.0000  0.0000  0.0000  0.0000 </r>
       </set>
      </set>
     </set>
    </set>
   </array>
  </projected>
 </calculation>
 <structure name="finalpos" >
  <crystal>
   <varray name="basis" >
    <v>       3.34288600       0.00000000       0.00000000 </v>
    <v>       0.00000000      32.60240900       0.00000000 </v>
    <v>       0.00000000       0.00000000       4.37483100 </v>
   </varray>
   <i name="volume">    476.79592902 </i>
   <varray name="rec_basis" >
    <v>       0.29914272       0.00000000       0.00000000 </v>
    <v>       0.00000000       0.03067258       0.00000000 </v>
    <v>       0.00000000       0.00000000       0.22858026 </v>
   </varray>
  </crystal>
  <varray name="positions" >
   <v>       0.00000000       0.30672600       0.91892400 </v>
   <v>       0.50000000       0.30672600       0.58107600 </v>
   <v>       0.00000000       0.37246700       0.08107600 </v>
   <v>       0.50000000       0.37246700       0.41892400 </v>
   <v>       0.50000000       0.46712900       0.91892400 </v>
   <v>       0.00000000       0.46712900       0.58107600 </v>
   <v>       0.50000000       0.53287100       0.08107600 </v>
   <v>       0.00000000       0.53287100       0.41892400 </v>
   <v>       0.00000000       0.62753300       0.91892400 </v>
   <v>       0.50000000       0.62753300       0.58107600 </v>
   <v>       0.00000000       0.69327400       0.08107600 </v>
   <v>       0.50000000       0.69327400       0.41892400 </v>
  </varray>
 </structure>
</modeling>
