    8    8    1    1
  0.5003952E+02  0.3342886E-09  0.2737286E-08  0.4374831E-09  0.5000000E-15
  1.000000000000000E-004
  CAR 
 Generic Input                           
     40     16     28
 
  0.0000000E+00  0.0000000E+00  0.0000000E+00  0.2777778E-01
    1      -15.936343   1.000000
    2      -15.793510   1.000000
    3      -13.422386   1.000000
    4      -13.110817   1.000000
    5       -9.711474   1.000000
    6       -9.593090   1.000000
    7       -6.951136   1.000000
    8       -6.321371   1.000000
    9       -5.670885   1.000000
   10       -5.550070   1.000000
   11       -5.133384   1.000000
   12       -5.005304   1.000000
   13       -4.478381   1.000000
   14       -4.370715   1.000000
   15       -2.945876   1.000000
   16       -2.801509   1.000000
   17       -2.646921   1.000000
   18       -2.382592   1.000000
   19       -1.346241   1.000000
   20       -0.212998   1.000000
   21       -0.102444   0.000000
   22        0.452902   0.000000
   23        0.511029   0.000000
   24        0.776699   0.000000
   25        1.673688   0.000000
   26        1.821071   0.000000
   27        2.598425   0.000000
   28        2.713565   0.000000
 
  0.1666667E+00  0.0000000E+00  0.0000000E+00  0.5555556E-01
    1      -15.613732   1.000000
    2      -15.471723   1.000000
    3      -13.087529   1.000000
    4      -12.775435   1.000000
    5      -10.029251   1.000000
    6       -9.911010   1.000000
    7       -6.681800   1.000000
    8       -6.268583   1.000000
    9       -6.076549   1.000000
   10       -5.741567   1.000000
   11       -5.575240   1.000000
   12       -5.458087   1.000000
   13       -5.273890   1.000000
   14       -4.860799   1.000000
   15       -3.764097   1.000000
   16       -3.466054   1.000000
   17       -2.829249   1.000000
   18       -2.205882   1.000000
   19       -1.543967   1.000000
   20       -0.344121   1.000000
   21        0.181286   0.000000
   22        0.739622   0.000000
   23        1.308539   0.000000
   24        1.369497   0.000000
   25        2.672174   0.000000
   26        2.835690   0.000000
   27        3.144438   0.000000
   28        3.259059   0.000000
 
  0.3333333E+00  0.0000000E+00  0.0000000E+00  0.5555556E-01
    1      -14.663854   1.000000
    2      -14.524553   1.000000
    3      -12.092442   1.000000
    4      -11.777891   1.000000
    5      -11.358549   1.000000
    6      -11.232928   1.000000
    7       -8.345940   1.000000
    8       -7.986736   1.000000
    9       -6.023689   1.000000
   10       -5.966336   1.000000
   11       -5.916677   1.000000
   12       -5.491369   1.000000
   13       -4.549804   1.000000
   14       -4.133255   1.000000
   15       -3.808118   1.000000
   16       -3.334969   1.000000
   17       -2.971761   1.000000
   18       -2.330982   1.000000
   19       -2.188256   1.000000
   20       -1.257581   1.000000
   21        0.096949   0.000000
   22        0.170124   0.000000
   23        1.065534   0.000000
   24        1.145368   0.000000
   25        1.598178   0.000000
   26        1.675619   0.000000
   27        1.682199   0.000000
   28        2.163990   0.000000
 
  0.5000000E+00  0.0000000E+00  0.0000000E+00  0.2777778E-01
    1      -13.161632   1.000000
    2      -13.161632   1.000000
    3      -13.027479   1.000000
    4      -13.027479   1.000000
    5      -10.473666   1.000000
    6      -10.473666   1.000000
    7      -10.150193   1.000000
    8      -10.150193   1.000000
    9       -5.527940   1.000000
   10       -5.527940   1.000000
   11       -5.385768   1.000000
   12       -5.385768   1.000000
   13       -3.979236   1.000000
   14       -3.979236   1.000000
   15       -3.383606   1.000000
   16       -3.383606   1.000000
   17       -3.096257   1.000000
   18       -3.096257   1.000000
   19       -2.250941   1.000000
   20       -2.250941   1.000000
   21        0.272262   0.000000
   22        0.272262   0.000000
   23        0.821754   0.000000
   24        0.821754   0.000000
   25        1.031513   0.000000
   26        1.031513   0.000000
   27        1.121435   0.000000
   28        1.121435   0.000000
 
  0.0000000E+00  0.0000000E+00  0.1666667E+00  0.5555556E-01
    1      -15.779639   1.000000
    2      -15.641390   1.000000
    3      -13.517130   1.000000
    4      -13.294967   1.000000
    5       -9.902005   1.000000
    6       -9.852339   1.000000
    7       -7.315890   1.000000
    8       -7.166169   1.000000
    9       -5.593049   1.000000
   10       -5.100862   1.000000
   11       -4.743765   1.000000
   12       -4.394133   1.000000
   13       -4.353931   1.000000
   14       -4.251956   1.000000
   15       -2.856932   1.000000
   16       -2.735349   1.000000
   17       -2.164109   1.000000
   18       -1.982972   1.000000
   19       -1.807265   1.000000
   20       -1.110630   1.000000
   21        0.658918   0.000000
   22        0.675911   0.000000
   23        0.845826   0.000000
   24        1.287825   0.000000
   25        1.417086   0.000000
   26        1.495838   0.000000
   27        2.393330   0.000000
   28        2.427895   0.000000
 
  0.1666667E+00  0.0000000E+00  0.1666667E+00  0.1111111E+00
    1      -15.459181   1.000000
    2      -15.321680   1.000000
    3      -13.192254   1.000000
    4      -12.975854   1.000000
    5      -10.044255   1.000000
    6      -10.018952   1.000000
    7       -7.291522   1.000000
    8       -7.045368   1.000000
    9       -6.026597   1.000000
   10       -5.954940   1.000000
   11       -5.587972   1.000000
   12       -5.240695   1.000000
   13       -4.229740   1.000000
   14       -4.130137   1.000000
   15       -3.954439   1.000000
   16       -3.789167   1.000000
   17       -2.161747   1.000000
   18       -2.151140   1.000000
   19       -1.862566   1.000000
   20       -1.047338   1.000000
   21        0.763037   0.000000
   22        1.092182   0.000000
   23        1.432521   0.000000
   24        1.525431   0.000000
   25        2.516387   0.000000
   26        2.689697   0.000000
   27        3.190222   0.000000
   28        3.232860   0.000000
 
  0.3333333E+00  0.0000000E+00  0.1666667E+00  0.1111111E+00
    1      -14.519324   1.000000
    2      -14.384176   1.000000
    3      -12.289784   1.000000
    4      -12.153466   1.000000
    5      -11.009332   1.000000
    6      -10.975982   1.000000
    7       -8.502899   1.000000
    8       -8.186873   1.000000
    9       -6.578144   1.000000
   10       -6.509050   1.000000
   11       -5.816974   1.000000
   12       -5.612367   1.000000
   13       -4.237097   1.000000
   14       -4.035696   1.000000
   15       -3.913497   1.000000
   16       -3.634675   1.000000
   17       -3.071116   1.000000
   18       -2.421064   1.000000
   19       -2.266503   1.000000
   20       -1.343376   1.000000
   21        0.789583   0.000000
   22        0.925507   0.000000
   23        1.130006   0.000000
   24        1.143287   0.000000
   25        1.472944   0.000000
   26        1.688955   0.000000
   27        2.072807   0.000000
   28        2.375291   0.000000
 
  0.5000000E+00  0.0000000E+00  0.1666667E+00  0.5555556E-01
    1      -13.065223   1.000000
    2      -13.065223   1.000000
    3      -12.934587   1.000000
    4      -12.934587   1.000000
    5      -10.492621   1.000000
    6      -10.492621   1.000000
    7      -10.215366   1.000000
    8      -10.215366   1.000000
    9       -5.857161   1.000000
   10       -5.857161   1.000000
   11       -5.620128   1.000000
   12       -5.620128   1.000000
   13       -4.525229   1.000000
   14       -4.525229   1.000000
   15       -3.919747   1.000000
   16       -3.919747   1.000000
   17       -2.827937   1.000000
   18       -2.827937   1.000000
   19       -1.825023   1.000000
   20       -1.825023   1.000000
   21        0.310286   0.000000
   22        0.310286   0.000000
   23        0.772404   0.000000
   24        0.772404   0.000000
   25        2.022430   0.000000
   26        2.022430   0.000000
   27        2.455081   0.000000
   28        2.457043   0.000000
 
  0.0000000E+00  0.0000000E+00  0.3333333E+00  0.5555556E-01
    1      -15.326675   1.000000
    2      -15.206086   1.000000
    3      -13.905606   1.000000
    4      -13.864678   1.000000
    5      -10.086360   1.000000
    6       -9.774328   1.000000
    7       -8.608168   1.000000
    8       -8.145967   1.000000
    9       -5.334525   1.000000
   10       -4.267425   1.000000
   11       -4.005789   1.000000
   12       -3.924265   1.000000
   13       -3.510147   1.000000
   14       -3.378288   1.000000
   15       -3.071555   1.000000
   16       -3.030692   1.000000
   17       -2.964342   1.000000
   18       -2.178163   1.000000
   19       -0.982520   1.000000
   20       -0.915973   1.000000
   21        0.761431   0.000000
   22        0.904135   0.000000
   23        0.986241   0.000000
   24        1.194844   0.000000
   25        1.759734   0.000000
   26        2.129362   0.000000
   27        2.233069   0.000000
   28        2.492716   0.000000
 
  0.1666667E+00  0.0000000E+00  0.3333333E+00  0.1111111E+00
    1      -15.012646   1.000000
    2      -14.892385   1.000000
    3      -13.598313   1.000000
    4      -13.563606   1.000000
    5      -10.028953   1.000000
    6       -9.751089   1.000000
    7       -8.492749   1.000000
    8       -8.051447   1.000000
    9       -5.875942   1.000000
   10       -5.851577   1.000000
   11       -5.215971   1.000000
   12       -4.918519   1.000000
   13       -4.601840   1.000000
   14       -4.049455   1.000000
   15       -3.339594   1.000000
   16       -2.920417   1.000000
   17       -2.387631   1.000000
   18       -1.975761   1.000000
   19       -1.693894   1.000000
   20       -1.688134   1.000000
   21        1.573153   0.000000
   22        1.665732   0.000000
   23        1.852592   0.000000
   24        2.055172   0.000000
   25        2.350431   0.000000
   26        2.465631   0.000000
   27        3.050274   0.000000
   28        3.133575   0.000000
 
  0.3333333E+00  0.0000000E+00  0.3333333E+00  0.1111111E+00
    1      -14.104949   1.000000
    2      -13.985038   1.000000
    3      -12.778193   1.000000
    4      -12.771039   1.000000
    5      -10.474114   1.000000
    6      -10.333411   1.000000
    7       -9.011171   1.000000
    8       -8.765582   1.000000
    9       -6.986317   1.000000
   10       -6.827101   1.000000
   11       -6.155170   1.000000
   12       -5.970964   1.000000
   13       -4.589891   1.000000
   14       -4.587627   1.000000
   15       -3.844905   1.000000
   16       -3.646301   1.000000
   17       -3.118586   1.000000
   18       -2.482104   1.000000
   19       -2.205310   1.000000
   20       -1.439204   1.000000
   21        0.964122   0.000000
   22        1.291605   0.000000
   23        1.670549   0.000000
   24        1.900182   0.000000
   25        2.768224   0.000000
   26        2.972457   0.000000
   27        3.064330   0.000000
   28        3.082012   0.000000
 
  0.5000000E+00  0.0000000E+00  0.3333333E+00  0.5555556E-01
    1      -12.839650   1.000000
    2      -12.839650   1.000000
    3      -12.718977   1.000000
    4      -12.718977   1.000000
    5      -10.579945   1.000000
    6      -10.579945   1.000000
    7      -10.409483   1.000000
    8      -10.409483   1.000000
    9       -6.198933   1.000000
   10       -6.198933   1.000000
   11       -5.857773   1.000000
   12       -5.857773   1.000000
   13       -5.308245   1.000000
   14       -5.308245   1.000000
   15       -4.804671   1.000000
   16       -4.804671   1.000000
   17       -2.805207   1.000000
   18       -2.805207   1.000000
   19       -1.630626   1.000000
   20       -1.630626   1.000000
   21        1.353821   0.000000
   22        1.353821   0.000000
   23        1.820751   0.000000
   24        1.820751   0.000000
   25        2.306200   0.000000
   26        2.306200   0.000000
   27        2.702029   0.000000
   28        2.702029   0.000000
 
  0.0000000E+00  0.0000000E+00  0.5000000E+00  0.2777778E-01
    1      -14.667596   1.000000
    2      -14.667596   1.000000
    3      -14.530680   1.000000
    4      -14.530680   1.000000
    5       -9.616180   1.000000
    6       -9.616180   1.000000
    7       -9.150322   1.000000
    8       -9.150322   1.000000
    9       -4.560958   1.000000
   10       -4.560958   1.000000
   11       -3.557861   1.000000
   12       -3.557861   1.000000
   13       -3.426483   1.000000
   14       -3.426483   1.000000
   15       -3.338319   1.000000
   16       -3.338319   1.000000
   17       -1.749167   1.000000
   18       -1.749167   1.000000
   19       -1.620826   1.000000
   20       -1.620826   1.000000
   21        0.962165   0.000000
   22        0.962165   0.000000
   23        1.303609   0.000000
   24        1.303609   0.000000
   25        2.354320   0.000000
   26        2.355256   0.000000
   27        2.580087   0.000000
   28        2.584248   0.000000
 
  0.1666667E+00  0.0000000E+00  0.5000000E+00  0.5555556E-01
    1      -14.361781   1.000000
    2      -14.361781   1.000000
    3      -14.225737   1.000000
    4      -14.225737   1.000000
    5       -9.484243   1.000000
    6       -9.484243   1.000000
    7       -9.053009   1.000000
    8       -9.053009   1.000000
    9       -5.427083   1.000000
   10       -5.427083   1.000000
   11       -5.326062   1.000000
   12       -5.326062   1.000000
   13       -4.337504   1.000000
   14       -4.337504   1.000000
   15       -3.278580   1.000000
   16       -3.278580   1.000000
   17       -1.795608   1.000000
   18       -1.795608   1.000000
   19       -1.669238   1.000000
   20       -1.669238   1.000000
   21        1.775216   0.000000
   22        1.775216   0.000000
   23        2.014673   0.000000
   24        2.014673   0.000000
   25        2.459664   0.000000
   26        2.459664   0.000000
   27        3.268209   0.000000
   28        3.268689   0.000000
 
  0.3333333E+00  0.0000000E+00  0.5000000E+00  0.5555556E-01
    1      -13.505648   1.000000
    2      -13.505648   1.000000
    3      -13.374065   1.000000
    4      -13.374065   1.000000
    5       -9.761737   1.000000
    6       -9.761737   1.000000
    7       -9.547913   1.000000
    8       -9.547913   1.000000
    9       -6.788960   1.000000
   10       -6.788960   1.000000
   11       -6.540139   1.000000
   12       -6.540139   1.000000
   13       -4.356319   1.000000
   14       -4.356319   1.000000
   15       -4.181833   1.000000
   16       -4.181833   1.000000
   17       -2.838568   1.000000
   18       -2.838568   1.000000
   19       -1.904452   1.000000
   20       -1.904452   1.000000
   21        2.014796   0.000000
   22        2.014796   0.000000
   23        2.188537   0.000000
   24        2.188537   0.000000
   25        2.894235   0.000000
   26        2.894235   0.000000
   27        3.049162   0.000000
   28        3.049162   0.000000
 
  0.5000000E+00  0.0000000E+00  0.5000000E+00  0.2777778E-01
    1      -12.702271   1.000000
    2      -12.702271   1.000000
    3      -12.589282   1.000000
    4      -12.589282   1.000000
    5      -10.658391   1.000000
    6      -10.658391   1.000000
    7      -10.548113   1.000000
    8      -10.548113   1.000000
    9       -6.042027   1.000000
   10       -6.042027   1.000000
   11       -5.951099   1.000000
   12       -5.951099   1.000000
   13       -5.604572   1.000000
   14       -5.604572   1.000000
   15       -5.493024   1.000000
   16       -5.493024   1.000000
   17       -2.795100   1.000000
   18       -2.795100   1.000000
   19       -1.561690   1.000000
   20       -1.561690   1.000000
   21        1.267242   0.000000
   22        1.267242   0.000000
   23        1.870248   0.000000
   24        1.870248   0.000000
   25        3.695708   0.000000
   26        3.695708   0.000000
   27        3.773471   0.000000
   28        3.773471   0.000000
