 vasp.5.4.4.18Apr17-6-g9f103f2a35 (build Jun 20 2017 18:00:50) complex          
  
 executed on             LinuxIFC date 2018.06.06  15:21:33
 running on   32 total cores
 distrk:  each k-point on   32 cores,    1 groups
 distr:  one band on NCORES_PER_BAND=   8 cores,    4 groups


--------------------------------------------------------------------------------------------------------


 INCAR:
 POTCAR:    PAW_PBE P 06Sep2000                   
 POTCAR:    PAW_PBE P 06Sep2000                   
   VRHFIN =P : s2p3                                                             
   LEXCH  = PE                                                                  
   EATOM  =   176.0430 eV,   12.9388 Ry                                         
                                                                                
   TITEL  = PAW_PBE P 06Sep2000                                                 
   LULTRA =        F    use ultrasoft PP ?                                      
   IUNSCR =        1    unscreen: 0-lin 1-nonlin 2-no                           
   RPACOR =    1.500    partial core radius                                     
   POMASS =   30.974; ZVAL   =    5.000    mass and valenz                      
   RCORE  =    1.900    outmost cutoff radius                                   
   RWIGS  =    2.330; RWIGS  =    1.233    wigner-seitz radius (au A)           
   ENMAX  =  255.040; ENMIN  =  191.280 eV                                      
   ICORE  =        2    local potential                                         
   LCOR   =        T    correct aug charges                                     
   LPAW   =        T    paw PP                                                  
   EAUG   =  342.924                                                            
   DEXC   =    0.000                                                            
   RMAX   =    1.935    core radius for proj-oper                               
   RAUG   =    1.300    factor for augmentation sphere                          
   RDEP   =    1.931    radius for radial grids                                 
   RDEPT  =    1.794    core radius for aug-charge                              
                                                                                
   Atomic configuration                                                         
    6 entries                                                                   
     n  l   j            E        occ.                                          
     1  0  0.50     -2084.0982   2.0000                                         
     2  0  0.50      -173.9859   2.0000                                         
     2  1  1.50      -124.4865   6.0000                                         
     3  0  0.50       -13.9692   2.0000                                         
     3  1  0.50        -5.5067   3.0000                                         
     3  2  1.50        -5.4423   0.0000                                         
   Description                                                                  
     l       E           TYP  RCUT    TYP  RCUT                                 
     0    -13.9691527     23  1.900                                             
     0    -11.7794650     23  1.900                                             
     1     -5.5066937     23  1.900                                             
     1     -0.2556953     23  1.900                                             
     2     -5.4423304     23  1.900                                             
  local pseudopotential read in
  partial core-charges read in
  partial kinetic energy density read in
  atomic valenz-charges read in
  non local Contribution for L=           0  read in
    real space projection operators read in
  non local Contribution for L=           0  read in
    real space projection operators read in
  non local Contribution for L=           1  read in
    real space projection operators read in
  non local Contribution for L=           1  read in
    real space projection operators read in
    PAW grid and wavefunctions read in
 
   number of l-projection  operators is LMAX  =           4
   number of lm-projection operators is LMMAX =           8
 
  PAW_PBE P 06Sep2000                   :
 energy of atom  1       EATOM= -176.0430
 kinetic energy error for atom=    0.0024 (will be added to EATOM!!)
 
 
 POSCAR: P8                                      
  positions in direct lattice
  No initial velocities read in
 exchange correlation table for  LEXCH =        8
   RHO(1)=    0.500       N(1)  =     2000
   RHO(2)=  100.500       N(2)  =     4000
 


--------------------------------------------------------------------------------------------------------


 ion  position               nearest neighbor table
   1  0.000  0.365  0.919-   2 2.23   2 2.23   3 2.26
   2  0.500  0.365  0.581-   1 2.23   1 2.23   4 2.26
   3  0.000  0.444  0.081-   4 2.23   4 2.23   1 2.26
   4  0.500  0.444  0.419-   3 2.23   3 2.23   2 2.26
   5  0.000  0.556  0.919-   6 2.23   6 2.23   7 2.26
   6  0.500  0.556  0.581-   5 2.23   5 2.23   8 2.26
   7  0.000  0.635  0.081-   8 2.23   8 2.23   5 2.26
   8  0.500  0.635  0.419-   7 2.23   7 2.23   6 2.26
 
  LATTYP: Found a simple orthorhombic cell.
 ALAT       =     3.3428860000
 B/A-ratio  =     1.3086988309
 C/A-ratio  =     8.1883929036
  
  Lattice vectors:
  
 A1 = (  -3.3428860000,   0.0000000000,   0.0000000000)
 A2 = (   0.0000000000,   0.0000000000,  -4.3748310000)
 A3 = (   0.0000000000, -27.3728640000,   0.0000000000)


Analysis of symmetry for initial positions (statically):
=====================================================================
 Subroutine PRICEL returns:
 Original cell was already a primitive cell.
 

 Routine SETGRP: Setting up the symmetry group for a 
 simple orthorhombic supercell.


 Subroutine GETGRP returns: Found  8 space group operations
 (whereof  4 operations were pure point group operations)
 out of a pool of  8 trial point group operations.


The static configuration has the point symmetry C_2h.
 The point group associated with its full space group is D_2h.


Analysis of symmetry for dynamics (positions and initial velocities):
=====================================================================
 Subroutine PRICEL returns:
 Original cell was already a primitive cell.
 

 Routine SETGRP: Setting up the symmetry group for a 
 simple orthorhombic supercell.


 Subroutine GETGRP returns: Found  8 space group operations
 (whereof  4 operations were pure point group operations)
 out of a pool of  8 trial point group operations.


The dynamic configuration has the point symmetry C_2h.
 The point group associated with its full space group is D_2h.


 Subroutine INISYM returns: Found  8 space group operations
 (whereof  4 operations are pure point group operations),
 and found     1 'primitive' translations

 
 
 KPOINTS: Automatic mesh                          

Automatic generation of k-mesh.
Space group operators:
 irot       det(A)        alpha          n_x          n_y          n_z        tau_x        tau_y        tau_z
    1     1.000000     0.000000     1.000000     0.000000     0.000000     0.000000     0.000000     0.000000
    2    -1.000000     0.000000     1.000000     0.000000     0.000000     0.000000     0.000000     0.000000
    3     1.000000   180.000000     1.000000     0.000000     0.000000     0.000000     0.000000     0.000000
    4    -1.000000   180.000000     1.000000     0.000000     0.000000     0.000000     0.000000     0.000000
    5     1.000000   180.000000     0.000000     1.000000     0.000000    -0.500000     0.000000    -0.500000
    6    -1.000000   180.000000     0.000000     1.000000     0.000000    -0.500000     0.000000    -0.500000
    7     1.000000   179.999999     0.000000     0.000000     1.000000    -0.500000     0.000000    -0.500000
    8    -1.000000   179.999999     0.000000     0.000000     1.000000    -0.500000     0.000000    -0.500000
 
 Subroutine IBZKPT returns following result:
 ===========================================
 
 Found     16 irreducible k-points:
 
 Following reciprocal coordinates:
            Coordinates               Weight
  0.000000  0.000000  0.000000      1.000000
  0.166667  0.000000  0.000000      2.000000
  0.333333  0.000000  0.000000      2.000000
  0.500000  0.000000  0.000000      1.000000
  0.000000  0.000000  0.166667      2.000000
  0.166667  0.000000  0.166667      4.000000
  0.333333  0.000000  0.166667      4.000000
  0.500000  0.000000  0.166667      2.000000
  0.000000  0.000000  0.333333      2.000000
  0.166667  0.000000  0.333333      4.000000
  0.333333  0.000000  0.333333      4.000000
  0.500000  0.000000  0.333333      2.000000
  0.000000  0.000000  0.500000      1.000000
  0.166667  0.000000  0.500000      2.000000
  0.333333  0.000000  0.500000      2.000000
  0.500000  0.000000  0.500000      1.000000
 
 Following cartesian coordinates:
            Coordinates               Weight
  0.000000  0.000000  0.000000      1.000000
  0.049857  0.000000  0.000000      2.000000
  0.099714  0.000000  0.000000      2.000000
  0.149571  0.000000  0.000000      1.000000
  0.000000  0.000000  0.038097      2.000000
  0.049857  0.000000  0.038097      4.000000
  0.099714  0.000000  0.038097      4.000000
  0.149571  0.000000  0.038097      2.000000
  0.000000  0.000000  0.076193      2.000000
  0.049857  0.000000  0.076193      4.000000
  0.099714  0.000000  0.076193      4.000000
  0.149571  0.000000  0.076193      2.000000
  0.000000  0.000000  0.114290      1.000000
  0.049857  0.000000  0.114290      2.000000
  0.099714  0.000000  0.114290      2.000000
  0.149571  0.000000  0.114290      1.000000
 


--------------------------------------------------------------------------------------------------------




 Dimension of arrays:
   k-points           NKPTS =     16   k-points in BZ     NKDIM =     16   number of bands    NBANDS=     28
   number of dos      NEDOS =   2000   number of ions     NIONS =      8
   non local maximal  LDIM  =      4   non local SUM 2l+1 LMDIM =      8
   total plane-waves  NPLWV =  40320
   max r-space proj   IRMAX =      1   max aug-charges    IRDMAX=   3264
   dimension x,y,z NGX =    16 NGY =  126 NGZ =   20
   dimension x,y,z NGXF=    32 NGYF=  252 NGZF=   40
   support grid    NGXF=    32 NGYF=  252 NGZF=   40
   ions per type =               8
   NGX,Y,Z   is equivalent  to a cutoff of   7.96,  7.65,  7.60 a.u.
   NGXF,Y,Z  is equivalent  to a cutoff of  15.91, 15.30, 15.20 a.u.

 SYSTEM =  Generic Input                           
 POSCAR =  P8                                      

 Startparameter for this run:
   NWRITE =      2    write-flag & timer
   PREC   = normal    normal or accurate (medium, high low for compatibility)
   ISTART =      0    job   : 0-new  1-cont  2-samecut
   ICHARG =      2    charge: 1-file 2-atom 10-const
   ISPIN  =      1    spin polarized calculation?
   LNONCOLLINEAR =      F non collinear calculations
   LSORBIT =      F    spin-orbit coupling
   INIWAV =      1    electr: 0-lowe 1-rand  2-diag
   LASPH  =      T    aspherical Exc in radial PAW
   METAGGA=      F    non-selfconsistent MetaGGA calc.

 Electronic Relaxation 1
   ENCUT  =  350.0 eV  25.72 Ry    5.07 a.u.   5.10 41.76  6.67*2*pi/ulx,y,z
   ENINI  =  350.0     initial cutoff
   ENAUG  =  342.9 eV  augmentation charge cutoff
   NELM   =    200;   NELMIN=  2; NELMDL=  0     # of ELM steps 
   EDIFF  = 0.1E-04   stopping-criterion for ELM
   LREAL  =      F    real-space projection
   NLSPLINE    = F    spline interpolate recip. space projectors
   LCOMPAT=      F    compatible to vasp.4.4
   GGA_COMPAT  = T    GGA compatible to vasp.4.4-vasp.4.6
   LMAXPAW     = -100 max onsite density
   LMAXMIX     =    2 max onsite mixed and CHGCAR
   VOSKOWN=      0    Vosko Wilk Nusair interpolation
   ROPT   =    0.00000
 Ionic relaxation
   EDIFFG = -.2E-01   stopping-criterion for IOM
   NSW    =      0    number of steps for IOM
   NBLOCK =      1;   KBLOCK =      1    inner block; outer block 
   IBRION =     -1    ionic relax: 0-MD 1-quasi-New 2-CG
   NFREE  =      1    steps in history (QN), initial steepest desc. (CG)
   ISIF   =      3    stress and relaxation
   IWAVPR =     11    prediction:  0-non 1-charg 2-wave 3-comb
   ISYM   =      2    0-nonsym 1-usesym 2-fastsym
   LCORR  =      T    Harris-Foulkes like correction to forces

   POTIM  = 0.5000    time-step for ionic-motion
   TEIN   =    0.0    initial temperature
   TEBEG  =    0.0;   TEEND  =   0.0 temperature during run
   SMASS  =  -3.00    Nose mass-parameter (am)
   estimated Nose-frequenzy (Omega)   =  0.10E-29 period in steps =****** mass=  -0.255E-27a.u.
   SCALEE = 1.0000    scale energy and forces
   NPACO  =    256;   APACO  = 16.0  distance and # of slots for P.C.
   PSTRESS=    0.0 pullay stress

  Mass of Ions in am
   POMASS =  30.97
  Ionic Valenz
   ZVAL   =   5.00
  Atomic Wigner-Seitz radii
   RWIGS  =  -1.00
  virtual crystal weights 
   VCA    =   1.00
   NELECT =      40.0000    total number of electrons
   NUPDOWN=      -1.0000    fix difference up-down

 DOS related values:
   EMIN   =  10.00;   EMAX   =-10.00  energy-range for DOS
   EFERMI =   0.00
   ISMEAR =     0;   SIGMA  =   0.01  broadening in eV -4-tet -1-fermi 0-gaus

 Electronic relaxation 2 (details)
   IALGO  =     38    algorithm
   LDIAG  =      T    sub-space diagonalisation (order eigenvalues)
   LSUBROT=      F    optimize rotation matrix (better conditioning)
   TURBO    =      0    0=normal 1=particle mesh
   IRESTART =      0    0=no restart 2=restart with 2 vectors
   NREBOOT  =      0    no. of reboots
   NMIN     =      0    reboot dimension
   EREF     =   0.00    reference energy to select bands
   IMIX   =      4    mixing-type and parameters
     AMIX     =   0.40;   BMIX     =  1.00
     AMIX_MAG =   1.60;   BMIX_MAG =  1.00
     AMIN     =   0.10
     WC   =   100.;   INIMIX=   1;  MIXPRE=   1;  MAXMIX= -45

 Intra band minimization:
   WEIMIN = 0.0000     energy-eigenvalue tresh-hold
   EBREAK =  0.89E-07  absolut break condition
   DEPER  =   0.30     relativ break condition  

   TIME   =   0.40     timestep for ELM

  volume/ion in A,a.u.               =      50.04       337.68
  Fermi-wavevector in a.u.,A,eV,Ry     =   0.759674  1.435575  7.851980  0.577104
  Thomas-Fermi vector in A             =   1.858521
 
 Write flags
   LWAVE        =      F    write WAVECAR
   LDOWNSAMPLE  =      F    k-point downsampling of WAVECAR
   LCHARG       =      T    write CHGCAR
   LVTOT        =      F    write LOCPOT, total local potential
   LVHAR        =      T    write LOCPOT, Hartree potential only
   LELF         =      F    write electronic localiz. function (ELF)
   LORBIT       =     11    0 simple, 1 ext, 2 COOP (PROOUT), +10 PAW based schemes


 Dipole corrections
   LMONO  =      F    monopole corrections only (constant potential shift)
   LDIPOL =      F    correct potential (dipole corrections)
   IDIPOL =      0    1-x, 2-y, 3-z, 4-all directions 
   EPSILON=  1.0000000 bulk dielectric constant

 Core level calculations are selected ICORELEVEL =  1
 Exchange correlation treatment:
   GGA     =    PE    GGA type
   LEXCH   =     8    internal setting for exchange type
   VOSKOWN=      0    Vosko Wilk Nusair interpolation
   LHFCALC =     F    Hartree Fock is set to
   LHFONE  =     F    Hartree Fock one center treatment
   AEXX    =    0.0000 exact exchange contribution

 Linear response parameters
   LEPSILON=     F    determine dielectric tensor
   LRPA    =     F    only Hartree local field effects (RPA)
   LNABLA  =     F    use nabla operator in PAW spheres
   LVEL    =     F    velocity operator in full k-point grid
   LINTERFAST=   F  fast interpolation
   KINTER  =     0    interpolate to denser k-point grid
   CSHIFT  =0.1000    complex shift for real part using Kramers Kronig
   OMEGAMAX=  -1.0    maximum frequency
   DEG_THRESHOLD= 0.2000000E-02 threshold for treating states as degnerate
   RTIME   =   -0.100 relaxation time in fs
  (WPLASMAI=    0.000 imaginary part of plasma frequency in eV, 0.658/RTIME)
   DFIELD  = 0.0000000 0.0000000 0.0000000 field for delta impulse in time
 
 Orbital magnetization related:
   ORBITALMAG=     F  switch on orbital magnetization
   LCHIMAG   =     F  perturbation theory with respect to B field
   DQ        =  0.001000  dq finite difference perturbation B field
   LLRAUG    =     F  two centre corrections for induced B field



--------------------------------------------------------------------------------------------------------


 Static calculation
 charge density and potential will be updated during run
 non-spin polarized calculation
 Variant of blocked Davidson
 Davidson routine will perform the subspace rotation
 perform sub-space diagonalisation
    after iterative eigenvector-optimisation
 modified Broyden-mixing scheme, WC =      100.0
 initial mixing is a Kerker type mixing with AMIX =  0.4000 and BMIX =      1.0000
 Hartree-type preconditioning will be used
 using additional bands            8
 reciprocal scheme for non local part
 use partial core corrections
 calculate Harris-corrections to forces 
   (improved forces if not selfconsistent)
 use gradient corrections 
 use of overlap-Matrix (Vanderbilt PP)
 Gauss-broadening in eV      SIGMA  =   0.01


--------------------------------------------------------------------------------------------------------


  energy-cutoff  :      350.00
  volume of cell :      400.32
      direct lattice vectors                 reciprocal lattice vectors
     3.342886000  0.000000000  0.000000000     0.299142717  0.000000000  0.000000000
     0.000000000 27.372864000  0.000000000     0.000000000  0.036532531  0.000000000
     0.000000000  0.000000000  4.374831000     0.000000000  0.000000000  0.228580258

  length of vectors
     3.342886000 27.372864000  4.374831000     0.299142717  0.036532531  0.228580258


 
 k-points in units of 2pi/SCALE and weight: Automatic mesh                          
   0.00000000  0.00000000  0.00000000       0.028
   0.04985712  0.00000000  0.00000000       0.056
   0.09971424  0.00000000  0.00000000       0.056
   0.14957136  0.00000000  0.00000000       0.028
   0.00000000  0.00000000  0.03809671       0.056
   0.04985712  0.00000000  0.03809671       0.111
   0.09971424  0.00000000  0.03809671       0.111
   0.14957136  0.00000000  0.03809671       0.056
   0.00000000  0.00000000  0.07619342       0.056
   0.04985712  0.00000000  0.07619342       0.111
   0.09971424  0.00000000  0.07619342       0.111
   0.14957136  0.00000000  0.07619342       0.056
   0.00000000  0.00000000  0.11429013       0.028
   0.04985712  0.00000000  0.11429013       0.056
   0.09971424  0.00000000  0.11429013       0.056
   0.14957136  0.00000000  0.11429013       0.028
 
 k-points in reciprocal lattice and weights: Automatic mesh                          
   0.00000000  0.00000000  0.00000000       0.028
   0.16666667  0.00000000  0.00000000       0.056
   0.33333333  0.00000000  0.00000000       0.056
   0.50000000  0.00000000  0.00000000       0.028
   0.00000000  0.00000000  0.16666667       0.056
   0.16666667  0.00000000  0.16666667       0.111
   0.33333333  0.00000000  0.16666667       0.111
   0.50000000  0.00000000  0.16666667       0.056
   0.00000000  0.00000000  0.33333333       0.056
   0.16666667  0.00000000  0.33333333       0.111
   0.33333333  0.00000000  0.33333333       0.111
   0.50000000  0.00000000  0.33333333       0.056
   0.00000000  0.00000000  0.50000000       0.028
   0.16666667  0.00000000  0.50000000       0.056
   0.33333333  0.00000000  0.50000000       0.056
   0.50000000  0.00000000  0.50000000       0.028
 
 position of ions in fractional coordinates (direct lattice) 
   0.00000000  0.36532500  0.91892400
   0.50000000  0.36532500  0.58107600
   0.00000000  0.44362600  0.08107600
   0.50000000  0.44362600  0.41892400
   0.00000000  0.55637400  0.91892400
   0.50000000  0.55637400  0.58107600
   0.00000000  0.63467500  0.08107600
   0.50000000  0.63467500  0.41892400
 
 position of ions in cartesian coordinates  (Angst):
   0.00000000  9.99999154  4.02013720
   1.67144300  9.99999154  2.54210930
   0.00000000 12.14331416  0.35469380
   1.67144300 12.14331416  1.83272170
   0.00000000 15.22954984  4.02013720
   1.67144300 15.22954984  2.54210930
   0.00000000 17.37287246  0.35469380
   1.67144300 17.37287246  1.83272170
 


--------------------------------------------------------------------------------------------------------


 k-point  1 :   0.0000 0.0000 0.0000  plane waves:    5981
 k-point  2 :   0.1667 0.0000 0.0000  plane waves:    5974
 k-point  3 :   0.3333 0.0000 0.0000  plane waves:    5980
 k-point  4 :   0.5000 0.0000 0.0000  plane waves:    5974
 k-point  5 :   0.0000 0.0000 0.1667  plane waves:    5919
 k-point  6 :   0.1667 0.0000 0.1667  plane waves:    5947
 k-point  7 :   0.3333 0.0000 0.1667  plane waves:    5976
 k-point  8 :   0.5000 0.0000 0.1667  plane waves:    5958
 k-point  9 :   0.0000 0.0000 0.3333  plane waves:    5906
 k-point 10 :   0.1667 0.0000 0.3333  plane waves:    5936
 k-point 11 :   0.3333 0.0000 0.3333  plane waves:    5963
 k-point 12 :   0.5000 0.0000 0.3333  plane waves:    5992
 k-point 13 :   0.0000 0.0000 0.5000  plane waves:    5890
 k-point 14 :   0.1667 0.0000 0.5000  plane waves:    5910
 k-point 15 :   0.3333 0.0000 0.5000  plane waves:    5978
 k-point 16 :   0.5000 0.0000 0.5000  plane waves:    6012

 maximum and minimum number of plane-waves per node :       779      723

 maximum number of plane-waves:      6012
 maximum index in each direction: 
   IXMAX=    5   IYMAX=   41   IZMAX=    6
   IXMIN=   -5   IYMIN=  -41   IZMIN=   -7


 parallel 3D FFT for wavefunctions:
    minimum data exchange during FFTs selected (reduces bandwidth)
 parallel 3D FFT for charge:
    minimum data exchange during FFTs selected (reduces bandwidth)


 total amount of memory used by VASP MPI-rank0    33547. kBytes
=======================================================================

   base      :      30000. kBytes
   nonl-proj :        898. kBytes
   fftplans  :        528. kBytes
   grid      :        706. kBytes
   one-center:          3. kBytes
   wavefun   :       1412. kBytes
 
     INWAV:  cpu time    0.0000: real time    0.0000
 Broyden mixing: mesh for mixing (old mesh)
   NGX = 11   NGY = 83   NGZ = 13
  (NGX  = 32   NGY  =252   NGZ  = 40)
  gives a total of  11869 points

 initial charge density was supplied:
 charge density of overlapping atoms calculated
 number of electron      40.0000000 magnetization 
 keeping initial charge density in first step


--------------------------------------------------------------------------------------------------------


 Maximum index for augmentation-charges          243 (set IRDMAX)


--------------------------------------------------------------------------------------------------------


 First call to EWALD:  gamma=   0.240
 Maximum number of real-space cells 5x 1x 4
 Maximum number of reciprocal cells 2x 9x 2

    FEWALD:  cpu time    0.0020: real time    0.0047


--------------------------------------- Iteration      1(   1)  ---------------------------------------


    POTLOK:  cpu time    0.0219: real time    0.0452
    SETDIJ:  cpu time    0.1537: real time    0.1565
     EDDAV:  cpu time    0.4132: real time    0.4581
       DOS:  cpu time    0.0010: real time    0.0025
    --------------------------------------------
      LOOP:  cpu time    0.5897: real time    0.6623

 eigenvalue-minimisations  :   896
 total energy-change (2. order) : 0.2290202E+03  (-0.1166733E+04)
 number of electron      40.0000000 magnetization 
 augmentation part       40.0000000 magnetization 

 Free energy of the ion-electron system (eV)
  ---------------------------------------------------
  alpha Z        PSCENC =        16.02894242
  Ewald energy   TEWEN  =      7853.93710242
  -Hartree energ DENC   =     -9107.29099652
  -exchange      EXHF   =         0.00000000
  -V(xc)+E(xc)   XCENC  =        26.77489437
  PAW double counting   =      1118.08023920    -1052.78864088
  entropy T*S    EENTRO =        -0.00023980
  eigenvalues    EBANDS =       -34.04571128
  atomic energy  EATOM  =      1408.32458022
  Solvation  Ediel_sol  =         0.00000000
  ---------------------------------------------------
  free energy    TOTEN  =       229.02017017 eV

  energy without entropy =      229.02040997  energy(sigma->0) =      229.02029007


--------------------------------------------------------------------------------------------------------




--------------------------------------- Iteration      1(   2)  ---------------------------------------


     EDDAV:  cpu time    0.5027: real time    0.5056
       DOS:  cpu time    0.0005: real time    0.0005
    --------------------------------------------
      LOOP:  cpu time    0.5032: real time    0.5061

 eigenvalue-minimisations  :  1300
 total energy-change (2. order) :-0.2458992E+03  (-0.2403600E+03)
 number of electron      40.0000000 magnetization 
 augmentation part       40.0000000 magnetization 

 Free energy of the ion-electron system (eV)
  ---------------------------------------------------
  alpha Z        PSCENC =        16.02894242
  Ewald energy   TEWEN  =      7853.93710242
  -Hartree energ DENC   =     -9107.29099652
  -exchange      EXHF   =         0.00000000
  -V(xc)+E(xc)   XCENC  =        26.77489437
  PAW double counting   =      1118.08023920    -1052.78864088
  entropy T*S    EENTRO =        -0.00000604
  eigenvalues    EBANDS =      -279.94512890
  atomic energy  EATOM  =      1408.32458022
  Solvation  Ediel_sol  =         0.00000000
  ---------------------------------------------------
  free energy    TOTEN  =       -16.87901369 eV

  energy without entropy =      -16.87900765  energy(sigma->0) =      -16.87901067


--------------------------------------------------------------------------------------------------------




--------------------------------------- Iteration      1(   3)  ---------------------------------------


     EDDAV:  cpu time    0.4315: real time    0.4340
       DOS:  cpu time    0.0004: real time    0.0004
    --------------------------------------------
      LOOP:  cpu time    0.4319: real time    0.4344

 eigenvalue-minimisations  :  1060
 total energy-change (2. order) :-0.2544410E+02  (-0.2524084E+02)
 number of electron      40.0000000 magnetization 
 augmentation part       40.0000000 magnetization 

 Free energy of the ion-electron system (eV)
  ---------------------------------------------------
  alpha Z        PSCENC =        16.02894242
  Ewald energy   TEWEN  =      7853.93710242
  -Hartree energ DENC   =     -9107.29099652
  -exchange      EXHF   =         0.00000000
  -V(xc)+E(xc)   XCENC  =        26.77489437
  PAW double counting   =      1118.08023920    -1052.78864088
  entropy T*S    EENTRO =        -0.00000000
  eigenvalues    EBANDS =      -305.38923000
  atomic energy  EATOM  =      1408.32458022
  Solvation  Ediel_sol  =         0.00000000
  ---------------------------------------------------
  free energy    TOTEN  =       -42.32310876 eV

  energy without entropy =      -42.32310876  energy(sigma->0) =      -42.32310876


--------------------------------------------------------------------------------------------------------




--------------------------------------- Iteration      1(   4)  ---------------------------------------


     EDDAV:  cpu time    0.5161: real time    0.5190
       DOS:  cpu time    0.0004: real time    0.0004
    --------------------------------------------
      LOOP:  cpu time    0.5165: real time    0.5194

 eigenvalue-minimisations  :  1320
 total energy-change (2. order) :-0.7452652E+00  (-0.7426000E+00)
 number of electron      40.0000000 magnetization 
 augmentation part       40.0000000 magnetization 

 Free energy of the ion-electron system (eV)
  ---------------------------------------------------
  alpha Z        PSCENC =        16.02894242
  Ewald energy   TEWEN  =      7853.93710242
  -Hartree energ DENC   =     -9107.29099652
  -exchange      EXHF   =         0.00000000
  -V(xc)+E(xc)   XCENC  =        26.77489437
  PAW double counting   =      1118.08023920    -1052.78864088
  entropy T*S    EENTRO =        -0.00000000
  eigenvalues    EBANDS =      -306.13449518
  atomic energy  EATOM  =      1408.32458022
  Solvation  Ediel_sol  =         0.00000000
  ---------------------------------------------------
  free energy    TOTEN  =       -43.06837393 eV

  energy without entropy =      -43.06837393  energy(sigma->0) =      -43.06837393


--------------------------------------------------------------------------------------------------------




--------------------------------------- Iteration      1(   5)  ---------------------------------------


     EDDAV:  cpu time    0.5004: real time    0.5018
       DOS:  cpu time    0.0004: real time    0.0004
    CHARGE:  cpu time    0.0197: real time    0.0235
    MIXING:  cpu time    0.0009: real time    0.0050
    --------------------------------------------
      LOOP:  cpu time    0.5214: real time    0.5307

 eigenvalue-minimisations  :  1308
 total energy-change (2. order) :-0.1763037E-01  (-0.1760162E-01)
 number of electron      40.0000002 magnetization 
 augmentation part       -4.3554712 magnetization 

 Broyden mixing:
  rms(total) = 0.14448E+01    rms(broyden)= 0.14448E+01
  rms(prec ) = 0.14512E+01
  weight for this iteration     100.00

 Free energy of the ion-electron system (eV)
  ---------------------------------------------------
  alpha Z        PSCENC =        16.02894242
  Ewald energy   TEWEN  =      7853.93710242
  -Hartree energ DENC   =     -9107.29099652
  -exchange      EXHF   =         0.00000000
  -V(xc)+E(xc)   XCENC  =        26.77489437
  PAW double counting   =      1118.08023920    -1052.78864088
  entropy T*S    EENTRO =        -0.00000000
  eigenvalues    EBANDS =      -306.15212555
  atomic energy  EATOM  =      1408.32458022
  Solvation  Ediel_sol  =         0.00000000
  ---------------------------------------------------
  free energy    TOTEN  =       -43.08600430 eV

  energy without entropy =      -43.08600430  energy(sigma->0) =      -43.08600430


--------------------------------------------------------------------------------------------------------




--------------------------------------- Iteration      1(   6)  ---------------------------------------


    POTLOK:  cpu time    0.0101: real time    0.0103
    SETDIJ:  cpu time    0.0638: real time    0.0638
     EDDAV:  cpu time    0.4611: real time    0.4621
       DOS:  cpu time    0.0004: real time    0.0004
    CHARGE:  cpu time    0.0184: real time    0.0184
    MIXING:  cpu time    0.0007: real time    0.0014
    --------------------------------------------
      LOOP:  cpu time    0.5546: real time    0.5565

 eigenvalue-minimisations  :  1128
 total energy-change (2. order) : 0.2324045E+00  (-0.1461017E-01)
 number of electron      40.0000001 magnetization 
 augmentation part       -4.3293371 magnetization 

 Broyden mixing:
  rms(total) = 0.85273E+00    rms(broyden)= 0.85273E+00
  rms(prec ) = 0.85655E+00
  weight for this iteration     100.00

 eigenvalues of (default mixing * dielectric matrix)
  average eigenvalue GAMMA=   2.4294
  2.4294

 Free energy of the ion-electron system (eV)
  ---------------------------------------------------
  alpha Z        PSCENC =        16.02894242
  Ewald energy   TEWEN  =      7853.93710242
  -Hartree energ DENC   =     -9115.15630250
  -exchange      EXHF   =         0.00000000
  -V(xc)+E(xc)   XCENC  =        27.49737912
  PAW double counting   =      2096.49569200    -2031.51890492
  entropy T*S    EENTRO =        -0.00000000
  eigenvalues    EBANDS =      -298.46208854
  atomic energy  EATOM  =      1408.32458022
  Solvation  Ediel_sol  =         0.00000000
  ---------------------------------------------------
  free energy    TOTEN  =       -42.85359978 eV

  energy without entropy =      -42.85359978  energy(sigma->0) =      -42.85359978


--------------------------------------------------------------------------------------------------------




--------------------------------------- Iteration      1(   7)  ---------------------------------------


    POTLOK:  cpu time    0.0087: real time    0.0100
    SETDIJ:  cpu time    0.0638: real time    0.0638
     EDDAV:  cpu time    0.4559: real time    0.4571
       DOS:  cpu time    0.0008: real time    0.0008
    CHARGE:  cpu time    0.0194: real time    0.0194
    MIXING:  cpu time    0.0008: real time    0.0008
    --------------------------------------------
      LOOP:  cpu time    0.5494: real time    0.5519

 eigenvalue-minimisations  :  1108
 total energy-change (2. order) : 0.1036902E+00  (-0.2667832E-01)
 number of electron      40.0000001 magnetization 
 augmentation part       -4.2951376 magnetization 

 Broyden mixing:
  rms(total) = 0.42653E-01    rms(broyden)= 0.42652E-01
  rms(prec ) = 0.44083E-01
  weight for this iteration     100.00

 eigenvalues of (default mixing * dielectric matrix)
  average eigenvalue GAMMA=   1.8418
  1.1822  2.5013

 Free energy of the ion-electron system (eV)
  ---------------------------------------------------
  alpha Z        PSCENC =        16.02894242
  Ewald energy   TEWEN  =      7853.93710242
  -Hartree energ DENC   =     -9128.68310949
  -exchange      EXHF   =         0.00000000
  -V(xc)+E(xc)   XCENC  =        28.65152683
  PAW double counting   =      4162.03910070    -4097.44325961
  entropy T*S    EENTRO =        -0.00000000
  eigenvalues    EBANDS =      -285.60479306
  atomic energy  EATOM  =      1408.32458022
  Solvation  Ediel_sol  =         0.00000000
  ---------------------------------------------------
  free energy    TOTEN  =       -42.74990957 eV

  energy without entropy =      -42.74990957  energy(sigma->0) =      -42.74990957


--------------------------------------------------------------------------------------------------------




--------------------------------------- Iteration      1(   8)  ---------------------------------------


    POTLOK:  cpu time    0.0091: real time    0.0109
    SETDIJ:  cpu time    0.0642: real time    0.0642
     EDDAV:  cpu time    0.4557: real time    0.4568
       DOS:  cpu time    0.0004: real time    0.0004
    CHARGE:  cpu time    0.0210: real time    0.0210
    MIXING:  cpu time    0.0006: real time    0.0011
    --------------------------------------------
      LOOP:  cpu time    0.5510: real time    0.5543

 eigenvalue-minimisations  :  1140
 total energy-change (2. order) :-0.4283536E-03  (-0.1936149E-02)
 number of electron      40.0000001 magnetization 
 augmentation part       -4.3003047 magnetization 

 Broyden mixing:
  rms(total) = 0.25092E-01    rms(broyden)= 0.25091E-01
  rms(prec ) = 0.26013E-01
  weight for this iteration     100.00

 eigenvalues of (default mixing * dielectric matrix)
  average eigenvalue GAMMA=   1.5971
  2.5097  1.1407  1.1407

 Free energy of the ion-electron system (eV)
  ---------------------------------------------------
  alpha Z        PSCENC =        16.02894242
  Ewald energy   TEWEN  =      7853.93710242
  -Hartree energ DENC   =     -9129.65057837
  -exchange      EXHF   =         0.00000000
  -V(xc)+E(xc)   XCENC  =        28.68488118
  PAW double counting   =      4246.42267701    -4181.79012665
  entropy T*S    EENTRO =        -0.00000000
  eigenvalues    EBANDS =      -284.70781616
  atomic energy  EATOM  =      1408.32458022
  Solvation  Ediel_sol  =         0.00000000
  ---------------------------------------------------
  free energy    TOTEN  =       -42.75033793 eV

  energy without entropy =      -42.75033793  energy(sigma->0) =      -42.75033793


--------------------------------------------------------------------------------------------------------




--------------------------------------- Iteration      1(   9)  ---------------------------------------


    POTLOK:  cpu time    0.0086: real time    0.0101
    SETDIJ:  cpu time    0.0638: real time    0.0638
     EDDAV:  cpu time    0.5293: real time    0.5306
       DOS:  cpu time    0.0004: real time    0.0004
    CHARGE:  cpu time    0.0201: real time    0.0201
    MIXING:  cpu time    0.0005: real time    0.0005
    --------------------------------------------
      LOOP:  cpu time    0.6227: real time    0.6256

 eigenvalue-minimisations  :  1380
 total energy-change (2. order) : 0.2238060E-03  (-0.1200552E-03)
 number of electron      40.0000001 magnetization 
 augmentation part       -4.3013232 magnetization 

 Broyden mixing:
  rms(total) = 0.16801E-01    rms(broyden)= 0.16801E-01
  rms(prec ) = 0.17601E-01
  weight for this iteration     100.00

 eigenvalues of (default mixing * dielectric matrix)
  average eigenvalue GAMMA=   1.8401
  2.4624  2.4624  1.2177  1.2177

 Free energy of the ion-electron system (eV)
  ---------------------------------------------------
  alpha Z        PSCENC =        16.02894242
  Ewald energy   TEWEN  =      7853.93710242
  -Hartree energ DENC   =     -9130.32004975
  -exchange      EXHF   =         0.00000000
  -V(xc)+E(xc)   XCENC  =        28.69503633
  PAW double counting   =      4255.94636876    -4191.29836112
  entropy T*S    EENTRO =        -0.00000000
  eigenvalues    EBANDS =      -284.06373340
  atomic energy  EATOM  =      1408.32458022
  Solvation  Ediel_sol  =         0.00000000
  ---------------------------------------------------
  free energy    TOTEN  =       -42.75011412 eV

  energy without entropy =      -42.75011412  energy(sigma->0) =      -42.75011412


--------------------------------------------------------------------------------------------------------




--------------------------------------- Iteration      1(  10)  ---------------------------------------


    POTLOK:  cpu time    0.0086: real time    0.0104
    SETDIJ:  cpu time    0.0638: real time    0.0638
     EDDAV:  cpu time    0.4430: real time    0.4443
       DOS:  cpu time    0.0004: real time    0.0004
    CHARGE:  cpu time    0.0207: real time    0.0207
    MIXING:  cpu time    0.0005: real time    0.0005
    --------------------------------------------
      LOOP:  cpu time    0.5371: real time    0.5401

 eigenvalue-minimisations  :  1068
 total energy-change (2. order) : 0.2445488E-03  (-0.8760839E-04)
 number of electron      40.0000001 magnetization 
 augmentation part       -4.3028164 magnetization 

 Broyden mixing:
  rms(total) = 0.76523E-02    rms(broyden)= 0.76523E-02
  rms(prec ) = 0.83457E-02
  weight for this iteration     100.00

 eigenvalues of (default mixing * dielectric matrix)
  average eigenvalue GAMMA=   1.6836
  2.3986  2.3986  1.1471  1.2369  1.2369

 Free energy of the ion-electron system (eV)
  ---------------------------------------------------
  alpha Z        PSCENC =        16.02894242
  Ewald energy   TEWEN  =      7853.93710242
  -Hartree energ DENC   =     -9131.62161055
  -exchange      EXHF   =         0.00000000
  -V(xc)+E(xc)   XCENC  =        28.69266638
  PAW double counting   =      4211.47868855    -4146.80226730
  entropy T*S    EENTRO =        -0.00000000
  eigenvalues    EBANDS =      -282.78797172
  atomic energy  EATOM  =      1408.32458022
  Solvation  Ediel_sol  =         0.00000000
  ---------------------------------------------------
  free energy    TOTEN  =       -42.74986957 eV

  energy without entropy =      -42.74986957  energy(sigma->0) =      -42.74986957


--------------------------------------------------------------------------------------------------------




--------------------------------------- Iteration      1(  11)  ---------------------------------------


    POTLOK:  cpu time    0.0089: real time    0.0104
    SETDIJ:  cpu time    0.0638: real time    0.0638
     EDDAV:  cpu time    0.4716: real time    0.4727
       DOS:  cpu time    0.0004: real time    0.0004
    CHARGE:  cpu time    0.0184: real time    0.0184
    MIXING:  cpu time    0.0005: real time    0.0005
    --------------------------------------------
      LOOP:  cpu time    0.5637: real time    0.5664

 eigenvalue-minimisations  :  1172
 total energy-change (2. order) : 0.6429460E-04  (-0.1747596E-04)
 number of electron      40.0000001 magnetization 
 augmentation part       -4.3022765 magnetization 

 Broyden mixing:
  rms(total) = 0.36842E-02    rms(broyden)= 0.36841E-02
  rms(prec ) = 0.44132E-02
  weight for this iteration     100.00

 eigenvalues of (default mixing * dielectric matrix)
  average eigenvalue GAMMA=   1.6793
  2.4955  2.4955  1.5265  1.3846  1.3846  0.7890

 Free energy of the ion-electron system (eV)
  ---------------------------------------------------
  alpha Z        PSCENC =        16.02894242
  Ewald energy   TEWEN  =      7853.93710242
  -Hartree energ DENC   =     -9132.40668563
  -exchange      EXHF   =         0.00000000
  -V(xc)+E(xc)   XCENC  =        28.71196250
  PAW double counting   =      4234.50136329    -4169.82688524
  entropy T*S    EENTRO =        -0.00000000
  eigenvalues    EBANDS =      -282.02018526
  atomic energy  EATOM  =      1408.32458022
  Solvation  Ediel_sol  =         0.00000000
  ---------------------------------------------------
  free energy    TOTEN  =       -42.74980528 eV

  energy without entropy =      -42.74980528  energy(sigma->0) =      -42.74980528


--------------------------------------------------------------------------------------------------------




--------------------------------------- Iteration      1(  12)  ---------------------------------------


    POTLOK:  cpu time    0.0089: real time    0.0106
    SETDIJ:  cpu time    0.0638: real time    0.0638
     EDDAV:  cpu time    0.4299: real time    0.4311
       DOS:  cpu time    0.0004: real time    0.0004
    CHARGE:  cpu time    0.0187: real time    0.0187
    MIXING:  cpu time    0.0007: real time    0.0007
    --------------------------------------------
      LOOP:  cpu time    0.5224: real time    0.5254

 eigenvalue-minimisations  :  1028
 total energy-change (2. order) :-0.5058378E-04  (-0.7323466E-05)
 number of electron      40.0000001 magnetization 
 augmentation part       -4.3020363 magnetization 

 Broyden mixing:
  rms(total) = 0.13161E-02    rms(broyden)= 0.13160E-02
  rms(prec ) = 0.20509E-02
  weight for this iteration     100.00

 eigenvalues of (default mixing * dielectric matrix)
  average eigenvalue GAMMA=   1.7433
  3.0816  2.5245  1.7469  1.7469  1.1185  1.1185  0.8661

 Free energy of the ion-electron system (eV)
  ---------------------------------------------------
  alpha Z        PSCENC =        16.02894242
  Ewald energy   TEWEN  =      7853.93710242
  -Hartree energ DENC   =     -9133.29981036
  -exchange      EXHF   =         0.00000000
  -V(xc)+E(xc)   XCENC  =        28.71926226
  PAW double counting   =      4227.85508912    -4163.17979377
  entropy T*S    EENTRO =        -0.00000000
  eigenvalues    EBANDS =      -281.13522817
  atomic energy  EATOM  =      1408.32458022
  Solvation  Ediel_sol  =         0.00000000
  ---------------------------------------------------
  free energy    TOTEN  =       -42.74985586 eV

  energy without entropy =      -42.74985586  energy(sigma->0) =      -42.74985586


--------------------------------------------------------------------------------------------------------




--------------------------------------- Iteration      1(  13)  ---------------------------------------


    POTLOK:  cpu time    0.0087: real time    0.0104
    SETDIJ:  cpu time    0.0638: real time    0.0638
     EDDAV:  cpu time    0.3829: real time    0.3839
       DOS:  cpu time    0.0004: real time    0.0004
    CHARGE:  cpu time    0.0193: real time    0.0193
    MIXING:  cpu time    0.0006: real time    0.0006
    --------------------------------------------
      LOOP:  cpu time    0.4757: real time    0.4784

 eigenvalue-minimisations  :   892
 total energy-change (2. order) :-0.1186352E-03  (-0.3144397E-05)
 number of electron      40.0000001 magnetization 
 augmentation part       -4.3019190 magnetization 

 Broyden mixing:
  rms(total) = 0.95350E-03    rms(broyden)= 0.95350E-03
  rms(prec ) = 0.13692E-02
  weight for this iteration     100.00

 eigenvalues of (default mixing * dielectric matrix)
  average eigenvalue GAMMA=   1.8718
  4.1573  2.4758  2.2334  1.5307  1.3310  1.3310  0.9578  0.9578

 Free energy of the ion-electron system (eV)
  ---------------------------------------------------
  alpha Z        PSCENC =        16.02894242
  Ewald energy   TEWEN  =      7853.93710242
  -Hartree energ DENC   =     -9133.97196490
  -exchange      EXHF   =         0.00000000
  -V(xc)+E(xc)   XCENC  =        28.72404171
  PAW double counting   =      4225.46977439    -4160.79421612
  entropy T*S    EENTRO =        -0.00000000
  eigenvalues    EBANDS =      -280.46823463
  atomic energy  EATOM  =      1408.32458022
  Solvation  Ediel_sol  =         0.00000000
  ---------------------------------------------------
  free energy    TOTEN  =       -42.74997450 eV

  energy without entropy =      -42.74997450  energy(sigma->0) =      -42.74997450


--------------------------------------------------------------------------------------------------------




--------------------------------------- Iteration      1(  14)  ---------------------------------------


    POTLOK:  cpu time    0.0088: real time    0.0105
    SETDIJ:  cpu time    0.0636: real time    0.0638
     EDDAV:  cpu time    0.3867: real time    0.3879
       DOS:  cpu time    0.0004: real time    0.0004
    CHARGE:  cpu time    0.0188: real time    0.0188
    MIXING:  cpu time    0.0006: real time    0.0006
    --------------------------------------------
      LOOP:  cpu time    0.4790: real time    0.4821

 eigenvalue-minimisations  :   868
 total energy-change (2. order) :-0.2145621E-03  (-0.3418910E-05)
 number of electron      40.0000001 magnetization 
 augmentation part       -4.3018105 magnetization 

 Broyden mixing:
  rms(total) = 0.11156E-02    rms(broyden)= 0.11156E-02
  rms(prec ) = 0.11901E-02
  weight for this iteration     100.00

 eigenvalues of (default mixing * dielectric matrix)
  average eigenvalue GAMMA=   2.0580
  5.2979  2.6395  2.6395  1.8401  1.8401  1.2142  1.2142  0.9181  0.9181

 Free energy of the ion-electron system (eV)
  ---------------------------------------------------
  alpha Z        PSCENC =        16.02894242
  Ewald energy   TEWEN  =      7853.93710242
  -Hartree energ DENC   =     -9134.67898044
  -exchange      EXHF   =         0.00000000
  -V(xc)+E(xc)   XCENC  =        28.72689989
  PAW double counting   =      4223.87776263    -4159.20223603
  entropy T*S    EENTRO =        -0.00000000
  eigenvalues    EBANDS =      -279.76426017
  atomic energy  EATOM  =      1408.32458022
  Solvation  Ediel_sol  =         0.00000000
  ---------------------------------------------------
  free energy    TOTEN  =       -42.75018906 eV

  energy without entropy =      -42.75018906  energy(sigma->0) =      -42.75018906


--------------------------------------------------------------------------------------------------------




--------------------------------------- Iteration      1(  15)  ---------------------------------------


    POTLOK:  cpu time    0.0102: real time    0.0104
    SETDIJ:  cpu time    0.0638: real time    0.0638
     EDDAV:  cpu time    0.3586: real time    0.3596
       DOS:  cpu time    0.0004: real time    0.0004
    CHARGE:  cpu time    0.0180: real time    0.0180
    MIXING:  cpu time    0.0007: real time    0.0007
    --------------------------------------------
      LOOP:  cpu time    0.4516: real time    0.4528

 eigenvalue-minimisations  :   772
 total energy-change (2. order) :-0.1112111E-03  (-0.6054032E-06)
 number of electron      40.0000001 magnetization 
 augmentation part       -4.3018153 magnetization 

 Broyden mixing:
  rms(total) = 0.36466E-03    rms(broyden)= 0.36466E-03
  rms(prec ) = 0.41808E-03
  weight for this iteration     100.00

 eigenvalues of (default mixing * dielectric matrix)
  average eigenvalue GAMMA=   2.1627
  6.5084  3.0188  2.3943  2.3943  1.5529  1.3669  1.3669  1.1739  0.9721  0.8787

 Free energy of the ion-electron system (eV)
  ---------------------------------------------------
  alpha Z        PSCENC =        16.02894242
  Ewald energy   TEWEN  =      7853.93710242
  -Hartree energ DENC   =     -9134.91662482
  -exchange      EXHF   =         0.00000000
  -V(xc)+E(xc)   XCENC  =        28.72682844
  PAW double counting   =      4225.69298985    -4161.01732120
  entropy T*S    EENTRO =        -0.00000000
  eigenvalues    EBANDS =      -279.52679760
  atomic energy  EATOM  =      1408.32458022
  Solvation  Ediel_sol  =         0.00000000
  ---------------------------------------------------
  free energy    TOTEN  =       -42.75030027 eV

  energy without entropy =      -42.75030027  energy(sigma->0) =      -42.75030027


--------------------------------------------------------------------------------------------------------




--------------------------------------- Iteration      1(  16)  ---------------------------------------


    POTLOK:  cpu time    0.0088: real time    0.0105
    SETDIJ:  cpu time    0.0636: real time    0.0638
     EDDAV:  cpu time    0.3426: real time    0.3438
       DOS:  cpu time    0.0004: real time    0.0004
    CHARGE:  cpu time    0.0197: real time    0.0197
    MIXING:  cpu time    0.0028: real time    0.0028
    --------------------------------------------
      LOOP:  cpu time    0.4379: real time    0.4409

 eigenvalue-minimisations  :   712
 total energy-change (2. order) :-0.5221954E-04  (-0.1597940E-06)
 number of electron      40.0000001 magnetization 
 augmentation part       -4.3018251 magnetization 

 Broyden mixing:
  rms(total) = 0.31034E-03    rms(broyden)= 0.31034E-03
  rms(prec ) = 0.33089E-03
  weight for this iteration     100.00

 eigenvalues of (default mixing * dielectric matrix)
  average eigenvalue GAMMA=   2.2309
  6.9016  3.4379  2.4455  2.4455  2.0270  1.8818  1.2558  1.2558  0.9996  0.9996
  0.8901

 Free energy of the ion-electron system (eV)
  ---------------------------------------------------
  alpha Z        PSCENC =        16.02894242
  Ewald energy   TEWEN  =      7853.93710242
  -Hartree energ DENC   =     -9134.99749631
  -exchange      EXHF   =         0.00000000
  -V(xc)+E(xc)   XCENC  =        28.72663813
  PAW double counting   =      4226.27083580    -4161.59498507
  entropy T*S    EENTRO =        -0.00000000
  eigenvalues    EBANDS =      -279.44597010
  atomic energy  EATOM  =      1408.32458022
  Solvation  Ediel_sol  =         0.00000000
  ---------------------------------------------------
  free energy    TOTEN  =       -42.75035249 eV

  energy without entropy =      -42.75035249  energy(sigma->0) =      -42.75035249


--------------------------------------------------------------------------------------------------------




--------------------------------------- Iteration      1(  17)  ---------------------------------------


    POTLOK:  cpu time    0.0089: real time    0.0104
    SETDIJ:  cpu time    0.0638: real time    0.0638
     EDDAV:  cpu time    0.3339: real time    0.3350
       DOS:  cpu time    0.0004: real time    0.0004
    CHARGE:  cpu time    0.0208: real time    0.0208
    MIXING:  cpu time    0.0008: real time    0.0008
    --------------------------------------------
      LOOP:  cpu time    0.4286: real time    0.4312

 eigenvalue-minimisations  :   668
 total energy-change (2. order) :-0.3558621E-04  (-0.9504979E-07)
 number of electron      40.0000001 magnetization 
 augmentation part       -4.3018266 magnetization 

 Broyden mixing:
  rms(total) = 0.20951E-03    rms(broyden)= 0.20951E-03
  rms(prec ) = 0.21742E-03
  weight for this iteration     100.00

 eigenvalues of (default mixing * dielectric matrix)
  average eigenvalue GAMMA=   2.2459
  7.4225  3.8468  2.5338  2.5338  2.1596  1.7084  1.3333  1.3333  1.2852  0.9629
  0.9629  0.8685

 Free energy of the ion-electron system (eV)
  ---------------------------------------------------
  alpha Z        PSCENC =        16.02894242
  Ewald energy   TEWEN  =      7853.93710242
  -Hartree energ DENC   =     -9135.03779049
  -exchange      EXHF   =         0.00000000
  -V(xc)+E(xc)   XCENC  =        28.72660893
  PAW double counting   =      4226.15422522    -4161.47842587
  entropy T*S    EENTRO =        -0.00000000
  eigenvalues    EBANDS =      -279.40563093
  atomic energy  EATOM  =      1408.32458022
  Solvation  Ediel_sol  =         0.00000000
  ---------------------------------------------------
  free energy    TOTEN  =       -42.75038807 eV

  energy without entropy =      -42.75038807  energy(sigma->0) =      -42.75038807


--------------------------------------------------------------------------------------------------------




--------------------------------------- Iteration      1(  18)  ---------------------------------------


    POTLOK:  cpu time    0.0090: real time    0.0107
    SETDIJ:  cpu time    0.0643: real time    0.0645
     EDDAV:  cpu time    0.3041: real time    0.3053
       DOS:  cpu time    0.0004: real time    0.0004
    --------------------------------------------
      LOOP:  cpu time    0.4610: real time    0.4642

 eigenvalue-minimisations  :   592
 total energy-change (2. order) :-0.7487363E-05  (-0.2489733E-07)
 number of electron      40.0000001 magnetization 
 augmentation part       -4.3018266 magnetization 

 Free energy of the ion-electron system (eV)
  ---------------------------------------------------
  alpha Z        PSCENC =        16.02894242
  Ewald energy   TEWEN  =      7853.93710242
  -Hartree energ DENC   =     -9135.05104444
  -exchange      EXHF   =         0.00000000
  -V(xc)+E(xc)   XCENC  =        28.72658648
  PAW double counting   =      4225.95436256    -4161.27857373
  entropy T*S    EENTRO =        -0.00000000
  eigenvalues    EBANDS =      -279.39235149
  atomic energy  EATOM  =      1408.32458022
  Solvation  Ediel_sol  =         0.00000000
  ---------------------------------------------------
  free energy    TOTEN  =       -42.75039556 eV

  energy without entropy =      -42.75039556  energy(sigma->0) =      -42.75039556


--------------------------------------------------------------------------------------------------------




 the core state eigenenergies are
   1-  1s  -2079.4769  2s   -169.5095  2p   -119.9949
   2-  1s  -2079.4769  2s   -169.5095  2p   -119.9949
   3-  1s  -2079.6021  2s   -169.6306  2p   -120.1165
   4-  1s  -2079.6021  2s   -169.6306  2p   -120.1165
   5-  1s  -2079.6021  2s   -169.6306  2p   -120.1165
   6-  1s  -2079.6021  2s   -169.6306  2p   -120.1165
   7-  1s  -2079.4769  2s   -169.5095  2p   -119.9949
   8-  1s  -2079.4769  2s   -169.5095  2p   -119.9949
 
 E-fermi :  -0.1647     XC(G=0):  -4.1970     alpha+bet : -4.4126


 k-point     1 :       0.0000    0.0000    0.0000
  band No.  band energies     occupation 
      1     -15.9363      2.00000
      2     -15.7935      2.00000
      3     -13.4224      2.00000
      4     -13.1108      2.00000
      5      -9.7115      2.00000
      6      -9.5931      2.00000
      7      -6.9511      2.00000
      8      -6.3214      2.00000
      9      -5.6709      2.00000
     10      -5.5501      2.00000
     11      -5.1334      2.00000
     12      -5.0053      2.00000
     13      -4.4784      2.00000
     14      -4.3707      2.00000
     15      -2.9459      2.00000
     16      -2.8015      2.00000
     17      -2.6469      2.00000
     18      -2.3826      2.00000
     19      -1.3462      2.00000
     20      -0.2130      2.00000
     21      -0.1024      0.00000
     22       0.4529      0.00000
     23       0.5110      0.00000
     24       0.7767      0.00000
     25       1.6737      0.00000
     26       1.8211      0.00000
     27       2.5984      0.00000
     28       2.7136      0.00000

 k-point     2 :       0.1667    0.0000    0.0000
  band No.  band energies     occupation 
      1     -15.6137      2.00000
      2     -15.4717      2.00000
      3     -13.0875      2.00000
      4     -12.7754      2.00000
      5     -10.0293      2.00000
      6      -9.9110      2.00000
      7      -6.6818      2.00000
      8      -6.2686      2.00000
      9      -6.0765      2.00000
     10      -5.7416      2.00000
     11      -5.5752      2.00000
     12      -5.4581      2.00000
     13      -5.2739      2.00000
     14      -4.8608      2.00000
     15      -3.7641      2.00000
     16      -3.4661      2.00000
     17      -2.8292      2.00000
     18      -2.2059      2.00000
     19      -1.5440      2.00000
     20      -0.3441      2.00000
     21       0.1813      0.00000
     22       0.7396      0.00000
     23       1.3085      0.00000
     24       1.3695      0.00000
     25       2.6722      0.00000
     26       2.8357      0.00000
     27       3.1444      0.00000
     28       3.2591      0.00000

 k-point     3 :       0.3333    0.0000    0.0000
  band No.  band energies     occupation 
      1     -14.6639      2.00000
      2     -14.5246      2.00000
      3     -12.0924      2.00000
      4     -11.7779      2.00000
      5     -11.3585      2.00000
      6     -11.2329      2.00000
      7      -8.3459      2.00000
      8      -7.9867      2.00000
      9      -6.0237      2.00000
     10      -5.9663      2.00000
     11      -5.9167      2.00000
     12      -5.4914      2.00000
     13      -4.5498      2.00000
     14      -4.1333      2.00000
     15      -3.8081      2.00000
     16      -3.3350      2.00000
     17      -2.9718      2.00000
     18      -2.3310      2.00000
     19      -2.1883      2.00000
     20      -1.2576      2.00000
     21       0.0969      0.00000
     22       0.1701      0.00000
     23       1.0655      0.00000
     24       1.1454      0.00000
     25       1.5982      0.00000
     26       1.6756      0.00000
     27       1.6822      0.00000
     28       2.1640      0.00000

 k-point     4 :       0.5000    0.0000    0.0000
  band No.  band energies     occupation 
      1     -13.1616      2.00000
      2     -13.1616      2.00000
      3     -13.0275      2.00000
      4     -13.0275      2.00000
      5     -10.4737      2.00000
      6     -10.4737      2.00000
      7     -10.1502      2.00000
      8     -10.1502      2.00000
      9      -5.5279      2.00000
     10      -5.5279      2.00000
     11      -5.3858      2.00000
     12      -5.3858      2.00000
     13      -3.9792      2.00000
     14      -3.9792      2.00000
     15      -3.3836      2.00000
     16      -3.3836      2.00000
     17      -3.0963      2.00000
     18      -3.0963      2.00000
     19      -2.2509      2.00000
     20      -2.2509      2.00000
     21       0.2723      0.00000
     22       0.2723      0.00000
     23       0.8218      0.00000
     24       0.8218      0.00000
     25       1.0315      0.00000
     26       1.0315      0.00000
     27       1.1214      0.00000
     28       1.1214      0.00000

 k-point     5 :       0.0000    0.0000    0.1667
  band No.  band energies     occupation 
      1     -15.7796      2.00000
      2     -15.6414      2.00000
      3     -13.5171      2.00000
      4     -13.2950      2.00000
      5      -9.9020      2.00000
      6      -9.8523      2.00000
      7      -7.3159      2.00000
      8      -7.1662      2.00000
      9      -5.5930      2.00000
     10      -5.1009      2.00000
     11      -4.7438      2.00000
     12      -4.3941      2.00000
     13      -4.3539      2.00000
     14      -4.2520      2.00000
     15      -2.8569      2.00000
     16      -2.7353      2.00000
     17      -2.1641      2.00000
     18      -1.9830      2.00000
     19      -1.8073      2.00000
     20      -1.1106      2.00000
     21       0.6589      0.00000
     22       0.6759      0.00000
     23       0.8458      0.00000
     24       1.2878      0.00000
     25       1.4171      0.00000
     26       1.4958      0.00000
     27       2.3933      0.00000
     28       2.4279      0.00000

 k-point     6 :       0.1667    0.0000    0.1667
  band No.  band energies     occupation 
      1     -15.4592      2.00000
      2     -15.3217      2.00000
      3     -13.1923      2.00000
      4     -12.9759      2.00000
      5     -10.0443      2.00000
      6     -10.0190      2.00000
      7      -7.2915      2.00000
      8      -7.0454      2.00000
      9      -6.0266      2.00000
     10      -5.9549      2.00000
     11      -5.5880      2.00000
     12      -5.2407      2.00000
     13      -4.2297      2.00000
     14      -4.1301      2.00000
     15      -3.9544      2.00000
     16      -3.7892      2.00000
     17      -2.1617      2.00000
     18      -2.1511      2.00000
     19      -1.8626      2.00000
     20      -1.0473      2.00000
     21       0.7630      0.00000
     22       1.0922      0.00000
     23       1.4325      0.00000
     24       1.5254      0.00000
     25       2.5164      0.00000
     26       2.6897      0.00000
     27       3.1902      0.00000
     28       3.2329      0.00000

 k-point     7 :       0.3333    0.0000    0.1667
  band No.  band energies     occupation 
      1     -14.5193      2.00000
      2     -14.3842      2.00000
      3     -12.2898      2.00000
      4     -12.1535      2.00000
      5     -11.0093      2.00000
      6     -10.9760      2.00000
      7      -8.5029      2.00000
      8      -8.1869      2.00000
      9      -6.5781      2.00000
     10      -6.5090      2.00000
     11      -5.8170      2.00000
     12      -5.6124      2.00000
     13      -4.2371      2.00000
     14      -4.0357      2.00000
     15      -3.9135      2.00000
     16      -3.6347      2.00000
     17      -3.0711      2.00000
     18      -2.4211      2.00000
     19      -2.2665      2.00000
     20      -1.3434      2.00000
     21       0.7896      0.00000
     22       0.9255      0.00000
     23       1.1300      0.00000
     24       1.1433      0.00000
     25       1.4729      0.00000
     26       1.6890      0.00000
     27       2.0728      0.00000
     28       2.3753      0.00000

 k-point     8 :       0.5000    0.0000    0.1667
  band No.  band energies     occupation 
      1     -13.0652      2.00000
      2     -13.0652      2.00000
      3     -12.9346      2.00000
      4     -12.9346      2.00000
      5     -10.4926      2.00000
      6     -10.4926      2.00000
      7     -10.2154      2.00000
      8     -10.2154      2.00000
      9      -5.8572      2.00000
     10      -5.8572      2.00000
     11      -5.6201      2.00000
     12      -5.6201      2.00000
     13      -4.5252      2.00000
     14      -4.5252      2.00000
     15      -3.9197      2.00000
     16      -3.9197      2.00000
     17      -2.8279      2.00000
     18      -2.8279      2.00000
     19      -1.8250      2.00000
     20      -1.8250      2.00000
     21       0.3103      0.00000
     22       0.3103      0.00000
     23       0.7724      0.00000
     24       0.7724      0.00000
     25       2.0224      0.00000
     26       2.0224      0.00000
     27       2.4551      0.00000
     28       2.4570      0.00000

 k-point     9 :       0.0000    0.0000    0.3333
  band No.  band energies     occupation 
      1     -15.3267      2.00000
      2     -15.2061      2.00000
      3     -13.9056      2.00000
      4     -13.8647      2.00000
      5     -10.0864      2.00000
      6      -9.7743      2.00000
      7      -8.6082      2.00000
      8      -8.1460      2.00000
      9      -5.3345      2.00000
     10      -4.2674      2.00000
     11      -4.0058      2.00000
     12      -3.9243      2.00000
     13      -3.5101      2.00000
     14      -3.3783      2.00000
     15      -3.0716      2.00000
     16      -3.0307      2.00000
     17      -2.9643      2.00000
     18      -2.1782      2.00000
     19      -0.9825      2.00000
     20      -0.9160      2.00000
     21       0.7614      0.00000
     22       0.9041      0.00000
     23       0.9862      0.00000
     24       1.1948      0.00000
     25       1.7597      0.00000
     26       2.1294      0.00000
     27       2.2331      0.00000
     28       2.4927      0.00000

 k-point    10 :       0.1667    0.0000    0.3333
  band No.  band energies     occupation 
      1     -15.0126      2.00000
      2     -14.8924      2.00000
      3     -13.5983      2.00000
      4     -13.5636      2.00000
      5     -10.0290      2.00000
      6      -9.7511      2.00000
      7      -8.4927      2.00000
      8      -8.0514      2.00000
      9      -5.8759      2.00000
     10      -5.8516      2.00000
     11      -5.2160      2.00000
     12      -4.9185      2.00000
     13      -4.6018      2.00000
     14      -4.0495      2.00000
     15      -3.3396      2.00000
     16      -2.9204      2.00000
     17      -2.3876      2.00000
     18      -1.9758      2.00000
     19      -1.6939      2.00000
     20      -1.6881      2.00000
     21       1.5732      0.00000
     22       1.6657      0.00000
     23       1.8526      0.00000
     24       2.0552      0.00000
     25       2.3504      0.00000
     26       2.4656      0.00000
     27       3.0503      0.00000
     28       3.1336      0.00000

 k-point    11 :       0.3333    0.0000    0.3333
  band No.  band energies     occupation 
      1     -14.1049      2.00000
      2     -13.9850      2.00000
      3     -12.7782      2.00000
      4     -12.7710      2.00000
      5     -10.4741      2.00000
      6     -10.3334      2.00000
      7      -9.0112      2.00000
      8      -8.7656      2.00000
      9      -6.9863      2.00000
     10      -6.8271      2.00000
     11      -6.1552      2.00000
     12      -5.9710      2.00000
     13      -4.5899      2.00000
     14      -4.5876      2.00000
     15      -3.8449      2.00000
     16      -3.6463      2.00000
     17      -3.1186      2.00000
     18      -2.4821      2.00000
     19      -2.2053      2.00000
     20      -1.4392      2.00000
     21       0.9641      0.00000
     22       1.2916      0.00000
     23       1.6705      0.00000
     24       1.9002      0.00000
     25       2.7682      0.00000
     26       2.9725      0.00000
     27       3.0643      0.00000
     28       3.0820      0.00000

 k-point    12 :       0.5000    0.0000    0.3333
  band No.  band energies     occupation 
      1     -12.8397      2.00000
      2     -12.8397      2.00000
      3     -12.7190      2.00000
      4     -12.7190      2.00000
      5     -10.5799      2.00000
      6     -10.5799      2.00000
      7     -10.4095      2.00000
      8     -10.4095      2.00000
      9      -6.1989      2.00000
     10      -6.1989      2.00000
     11      -5.8578      2.00000
     12      -5.8578      2.00000
     13      -5.3082      2.00000
     14      -5.3082      2.00000
     15      -4.8047      2.00000
     16      -4.8047      2.00000
     17      -2.8052      2.00000
     18      -2.8052      2.00000
     19      -1.6306      2.00000
     20      -1.6306      2.00000
     21       1.3538      0.00000
     22       1.3538      0.00000
     23       1.8208      0.00000
     24       1.8208      0.00000
     25       2.3062      0.00000
     26       2.3062      0.00000
     27       2.7020      0.00000
     28       2.7020      0.00000

 k-point    13 :       0.0000    0.0000    0.5000
  band No.  band energies     occupation 
      1     -14.6676      2.00000
      2     -14.6676      2.00000
      3     -14.5307      2.00000
      4     -14.5307      2.00000
      5      -9.6162      2.00000
      6      -9.6162      2.00000
      7      -9.1503      2.00000
      8      -9.1503      2.00000
      9      -4.5610      2.00000
     10      -4.5610      2.00000
     11      -3.5579      2.00000
     12      -3.5579      2.00000
     13      -3.4265      2.00000
     14      -3.4265      2.00000
     15      -3.3383      2.00000
     16      -3.3383      2.00000
     17      -1.7492      2.00000
     18      -1.7492      2.00000
     19      -1.6208      2.00000
     20      -1.6208      2.00000
     21       0.9622      0.00000
     22       0.9622      0.00000
     23       1.3036      0.00000
     24       1.3036      0.00000
     25       2.3543      0.00000
     26       2.3553      0.00000
     27       2.5801      0.00000
     28       2.5842      0.00000

 k-point    14 :       0.1667    0.0000    0.5000
  band No.  band energies     occupation 
      1     -14.3618      2.00000
      2     -14.3618      2.00000
      3     -14.2257      2.00000
      4     -14.2257      2.00000
      5      -9.4842      2.00000
      6      -9.4842      2.00000
      7      -9.0530      2.00000
      8      -9.0530      2.00000
      9      -5.4271      2.00000
     10      -5.4271      2.00000
     11      -5.3261      2.00000
     12      -5.3261      2.00000
     13      -4.3375      2.00000
     14      -4.3375      2.00000
     15      -3.2786      2.00000
     16      -3.2786      2.00000
     17      -1.7956      2.00000
     18      -1.7956      2.00000
     19      -1.6692      2.00000
     20      -1.6692      2.00000
     21       1.7752      0.00000
     22       1.7752      0.00000
     23       2.0147      0.00000
     24       2.0147      0.00000
     25       2.4597      0.00000
     26       2.4597      0.00000
     27       3.2682      0.00000
     28       3.2687      0.00000

 k-point    15 :       0.3333    0.0000    0.5000
  band No.  band energies     occupation 
      1     -13.5056      2.00000
      2     -13.5056      2.00000
      3     -13.3741      2.00000
      4     -13.3741      2.00000
      5      -9.7617      2.00000
      6      -9.7617      2.00000
      7      -9.5479      2.00000
      8      -9.5479      2.00000
      9      -6.7890      2.00000
     10      -6.7890      2.00000
     11      -6.5401      2.00000
     12      -6.5401      2.00000
     13      -4.3563      2.00000
     14      -4.3563      2.00000
     15      -4.1818      2.00000
     16      -4.1818      2.00000
     17      -2.8386      2.00000
     18      -2.8386      2.00000
     19      -1.9045      2.00000
     20      -1.9045      2.00000
     21       2.0148      0.00000
     22       2.0148      0.00000
     23       2.1885      0.00000
     24       2.1885      0.00000
     25       2.8942      0.00000
     26       2.8942      0.00000
     27       3.0492      0.00000
     28       3.0492      0.00000

 k-point    16 :       0.5000    0.0000    0.5000
  band No.  band energies     occupation 
      1     -12.7023      2.00000
      2     -12.7023      2.00000
      3     -12.5893      2.00000
      4     -12.5893      2.00000
      5     -10.6584      2.00000
      6     -10.6584      2.00000
      7     -10.5481      2.00000
      8     -10.5481      2.00000
      9      -6.0420      2.00000
     10      -6.0420      2.00000
     11      -5.9511      2.00000
     12      -5.9511      2.00000
     13      -5.6046      2.00000
     14      -5.6046      2.00000
     15      -5.4930      2.00000
     16      -5.4930      2.00000
     17      -2.7951      2.00000
     18      -2.7951      2.00000
     19      -1.5617      2.00000
     20      -1.5617      2.00000
     21       1.2672      0.00000
     22       1.2672      0.00000
     23       1.8702      0.00000
     24       1.8702      0.00000
     25       3.6957      0.00000
     26       3.6957      0.00000
     27       3.7735      0.00000
     28       3.7735      0.00000


--------------------------------------------------------------------------------------------------------


 soft charge-density along one line, spin component           1
         0         1         2         3         4         5         6         7         8         9
 total charge-density along one line
 
 pseudopotential strength for first ion, spin component:           1
 29.925  37.330   0.035  -0.033  -0.000   0.054  -0.051   0.000
 37.330  46.573   0.043  -0.041  -0.000   0.067  -0.064  -0.000
  0.035   0.043   6.597   0.006  -0.000  10.201   0.009  -0.000
 -0.033  -0.041   0.006   6.601  -0.000   0.009  10.208  -0.000
 -0.000  -0.000  -0.000  -0.000   6.605  -0.000  -0.000  10.214
  0.054   0.067  10.201   0.009  -0.000  15.795   0.014  -0.000
 -0.051  -0.064   0.009  10.208  -0.000   0.014  15.804  -0.000
  0.000  -0.000  -0.000  -0.000  10.214  -0.000  -0.000  15.814
 total augmentation occupancy for first ion, spin component:           1
  8.306  -4.737   1.847  -1.941   0.000  -0.599   0.648   0.000
 -4.737   3.442  -1.585   1.650  -0.000   0.445  -0.476   0.000
  1.847  -1.585   3.135   0.198   0.000  -0.827  -0.161   0.000
 -1.941   1.650   0.198   3.276  -0.000  -0.159  -0.927  -0.000
  0.000  -0.000   0.000   0.000   3.404   0.000   0.000  -1.029
 -0.599   0.445  -0.827  -0.159   0.000   0.262   0.070   0.000
  0.648  -0.476  -0.161  -0.927   0.000   0.070   0.300   0.000
  0.000   0.000   0.000  -0.000  -1.029   0.000   0.000   0.340


------------------------ aborting loop because EDIFF is reached ----------------------------------------


 


 total charge     
 
# of ion       s       p       d       tot
------------------------------------------
    1        1.082   1.376   0.000   2.458
    2        1.082   1.376   0.000   2.458
    3        1.087   1.370   0.000   2.457
    4        1.087   1.370   0.000   2.457
    5        1.087   1.370   0.000   2.457
    6        1.087   1.370   0.000   2.457
    7        1.082   1.376   0.000   2.458
    8        1.082   1.376   0.000   2.458
--------------------------------------------------
tot          8.676  10.984   0.000  19.660
 
    CHARGE:  cpu time    0.0257: real time    0.0257
    FORLOC:  cpu time    0.0006: real time    0.0006
    FORNL :  cpu time    0.0495: real time    0.0506
    STRESS:  cpu time    0.0933: real time    0.0933
    FORCOR:  cpu time    0.0086: real time    0.0086
    FORHAR:  cpu time    0.0025: real time    0.0025
    MIXING:  cpu time    0.0008: real time    0.0008
    OFIELD:  cpu time    0.0000: real time    0.0000

  DFT-D2 method for vdW energy calculation
  -------------------------------------------------------------------

  Parameters of vdW forcefield:
         C6(Jnm^6/mol)     R0(A)
   -----------------------------
   P        7.840          1.705

  IVDW =  10
  VDW_RADIUS =    50.000 A
  VDW_S6 =     0.750
  VDW_SR =     1.000
  VDW_D =    20.000
  LVDW_EWALD = F

  Number of pair interactions contributing to vdW energy:   46314
  Edisp (eV):   -1.29843
    FORVDW:  cpu time    0.0469: real time    0.0482

  FORCE on cell =-STRESS in cart. coord.  units (eV):
  Direction    XX          YY          ZZ          XY          YZ          ZX
  --------------------------------------------------------------------------------------
  Alpha Z    16.02894    16.02894    16.02894
  Ewald    8925.85051 -9887.24870  8815.33399     0.00000    -0.00000    -0.00000
  Hartree  9085.44804 -8996.80235  9046.42648    -0.00000    -0.00000    -0.00000
  E(xc)    -134.34835  -135.17196  -134.43369    -0.00000     0.00000     0.00000
  Local  -18642.45011 18225.74498-18506.32818     0.00000    -0.00000     0.00000
  n-local   454.04194   451.71985   450.26559     0.00000     0.00000     1.12725
  augment   -84.37189   -87.04650   -85.98263    -0.00000    -0.00000    -0.00000
  Kinetic   379.41764   415.35058   399.61990    -0.00000     0.00000     4.87068
  Fock        0.00000     0.00000     0.00000     0.00000     0.00000     0.00000
  vdW        -0.15693    -0.59484    -0.57862    -0.00000    -0.00000    -0.00000
  -------------------------------------------------------------------------------------
  Total      -0.54022     1.97999     0.35178     0.00000    -0.00000     0.00000
  in kB      -2.16210     7.92446     1.40793     0.00000    -0.00000     0.00000
  external pressure =        2.39 kB  Pullay stress =        0.00 kB


 VOLUME and BASIS-vectors are now :
 -----------------------------------------------------------------------------
  energy-cutoff  :      350.00
  volume of cell :      400.32
      direct lattice vectors                 reciprocal lattice vectors
     3.342886000  0.000000000  0.000000000     0.299142717  0.000000000  0.000000000
     0.000000000 27.372864000  0.000000000     0.000000000  0.036532531  0.000000000
     0.000000000  0.000000000  4.374831000     0.000000000  0.000000000  0.228580258

  length of vectors
     3.342886000 27.372864000  4.374831000     0.299142717  0.036532531  0.228580258


 FORCES acting on ions
    electron-ion (+dipol)            ewald-force                    non-local-force                 convergence-correction
 -----------------------------------------------------------------------------------------------
   0.616E-14 0.588E+03 -.291E+02   0.300E-14 -.594E+03 0.342E+02   0.278E-16 0.552E+01 -.523E+01   -.683E-15 0.945E-03 -.925E-04
   -.175E-14 0.588E+03 0.291E+02   -.883E-15 -.594E+03 -.342E+02   -.555E-16 0.552E+01 0.523E+01   0.918E-15 0.945E-03 0.925E-04
   -.131E-14 0.175E+03 0.252E+02   -.629E-15 -.170E+03 -.308E+02   0.278E-16 -.521E+01 0.551E+01   0.987E-15 0.775E-03 0.214E-03
   0.906E-14 0.175E+03 -.252E+02   -.111E-14 -.170E+03 0.308E+02   0.278E-16 -.521E+01 -.551E+01   -.162E-14 0.775E-03 -.214E-03
   0.647E-14 -.175E+03 -.252E+02   0.468E-14 0.170E+03 0.308E+02   -.278E-16 0.521E+01 -.551E+01   0.180E-15 -.775E-03 -.214E-03
   0.426E-14 -.175E+03 0.252E+02   -.356E-14 0.170E+03 -.308E+02   -.278E-16 0.521E+01 0.551E+01   0.130E-14 -.775E-03 0.214E-03
   -.613E-14 -.588E+03 0.291E+02   0.242E-14 0.594E+03 -.342E+02   -.278E-16 -.552E+01 0.523E+01   0.137E-15 -.945E-03 0.925E-04
   0.558E-14 -.588E+03 -.291E+02   0.217E-15 0.594E+03 0.342E+02   0.555E-16 -.552E+01 -.523E+01   0.503E-15 -.945E-03 -.925E-04
 -----------------------------------------------------------------------------------------------
   0.224E-13 -.494E-12 0.320E-12   0.412E-14 0.000E+00 0.000E+00   0.000E+00 0.000E+00 -.888E-15   0.173E-14 0.490E-11 -.678E-14
 
 
 POSITION                                       TOTAL-FORCE (eV/Angst)
 -----------------------------------------------------------------------------------
      0.00000      9.99999      4.02014         0.000000     -0.084781     -0.125254
      1.67144      9.99999      2.54211         0.000000     -0.084781      0.125254
      0.00000     12.14331      0.35469         0.000000     -0.129463     -0.077646
      1.67144     12.14331      1.83272        -0.000000     -0.129463      0.077646
      0.00000     15.22955      4.02014         0.000000      0.129463      0.077646
      1.67144     15.22955      2.54211         0.000000      0.129463     -0.077646
      0.00000     17.37287      0.35469        -0.000000      0.084781      0.125254
      1.67144     17.37287      1.83272         0.000000      0.084781     -0.125254
 -----------------------------------------------------------------------------------
    total drift:                                0.000000      0.000000      0.000000


--------------------------------------------------------------------------------------------------------



  FREE ENERGIE OF THE ION-ELECTRON SYSTEM (eV)
  ---------------------------------------------------
  free  energy   TOTEN  =       -44.04882465 eV

  energy  without entropy=      -44.04882465  energy(sigma->0) =      -44.04882465
 


--------------------------------------------------------------------------------------------------------


    POTLOK:  cpu time    0.1083: real time    0.1084


--------------------------------------------------------------------------------------------------------


     LOOP+:  cpu time   10.1189: real time   10.2874
    4ORBIT:  cpu time    0.0000: real time    0.0000
 


 total charge     
 
# of ion       s       p       d       tot
------------------------------------------
    1        1.082   1.376   0.000   2.458
    2        1.082   1.376   0.000   2.458
    3        1.087   1.370   0.000   2.457
    4        1.087   1.370   0.000   2.457
    5        1.087   1.370   0.000   2.457
    6        1.087   1.370   0.000   2.457
    7        1.082   1.376   0.000   2.458
    8        1.082   1.376   0.000   2.458
--------------------------------------------------
tot          8.676  10.984   0.000  19.660
 

 total amount of memory used by VASP MPI-rank0    33547. kBytes
=======================================================================

   base      :      30000. kBytes
   nonl-proj :        898. kBytes
   fftplans  :        528. kBytes
   grid      :        706. kBytes
   one-center:          3. kBytes
   wavefun   :       1412. kBytes
 
  
  
 General timing and accounting informations for this job:
 ========================================================
  
                  Total CPU time used (sec):       14.651
                            User time (sec):       12.998
                          System time (sec):        1.653
                         Elapsed time (sec):       15.925
  
                   Maximum memory used (kb):       91956.
                   Average memory used (kb):           0.
  
                          Minor page faults:        31908
                          Major page faults:           21
                 Voluntary context switches:         3856
