 running on   32 total cores
 distrk:  each k-point on   32 cores,    1 groups
 distr:  one band on    8 cores,    4 groups
 using from now: INCAR     
 vasp.5.4.4.18Apr17-6-g9f103f2a35 (build Jun 20 2017 18:00:50) complex          
  
 POSCAR found type information on POSCAR  P 
 POSCAR found :  1 types and       8 ions
 scaLAPACK will be used
 LDA part: xc-table for Pade appr. of Perdew
 POSCAR, INCAR and KPOINTS ok, starting setup
 FFT: planning ...
 WAVECAR not read
 WARNING: random wavefunctions but no delay for mixing, default for NELMDL
 entering main loop
       N       E                     dE             d eps       ncg     rms          rms(c)
DAV:   1     0.229020170168E+03    0.22902E+03   -0.11667E+04   896   0.795E+02
DAV:   2    -0.168790136870E+02   -0.24590E+03   -0.24036E+03  1300   0.182E+02
DAV:   3    -0.423231087559E+02   -0.25444E+02   -0.25241E+02  1060   0.642E+01
DAV:   4    -0.430683739312E+02   -0.74527E+00   -0.74260E+00  1320   0.129E+01
DAV:   5    -0.430860042979E+02   -0.17630E-01   -0.17602E-01  1308   0.178E+00    0.144E+01
DAV:   6    -0.428535997831E+02    0.23240E+00   -0.14610E-01  1128   0.169E+00    0.853E+00
DAV:   7    -0.427499095722E+02    0.10369E+00   -0.26678E-01  1108   0.224E+00    0.427E-01
DAV:   8    -0.427503379258E+02   -0.42835E-03   -0.19361E-02  1140   0.670E-01    0.251E-01
DAV:   9    -0.427501141198E+02    0.22381E-03   -0.12006E-03  1380   0.172E-01    0.168E-01
DAV:  10    -0.427498695710E+02    0.24455E-03   -0.87608E-04  1068   0.129E-01    0.765E-02
DAV:  11    -0.427498052764E+02    0.64295E-04   -0.17476E-04  1172   0.597E-02    0.368E-02
DAV:  12    -0.427498558601E+02   -0.50584E-04   -0.73235E-05  1028   0.312E-02    0.132E-02
DAV:  13    -0.427499744953E+02   -0.11864E-03   -0.31444E-05   892   0.194E-02    0.954E-03
DAV:  14    -0.427501890574E+02   -0.21456E-03   -0.34189E-05   868   0.171E-02    0.112E-02
DAV:  15    -0.427503002685E+02   -0.11121E-03   -0.60540E-06   772   0.861E-03    0.365E-03
DAV:  16    -0.427503524881E+02   -0.52220E-04   -0.15979E-06   712   0.438E-03    0.310E-03
DAV:  17    -0.427503880743E+02   -0.35586E-04   -0.95050E-07   668   0.312E-03    0.210E-03
DAV:  18    -0.427503955616E+02   -0.74874E-05   -0.24897E-07   592   0.165E-03
   1 F= -.44048825E+02 E0= -.44048825E+02  d E =-.116137E-13
