       N       E                     dE             d eps       ncg     rms          rms(c)
DAV:   1     0.338789793721E+03    0.33879E+03   -0.19304E+04   960   0.956E+02
DAV:   2    -0.270919484634E+02   -0.36588E+03   -0.35481E+03  1368   0.201E+02
DAV:   3    -0.634386268764E+02   -0.36347E+02   -0.35762E+02  1152   0.672E+01
DAV:   4    -0.647961060385E+02   -0.13575E+01   -0.13499E+01  1432   0.145E+01
DAV:   5    -0.648318584811E+02   -0.35752E-01   -0.35728E-01  1448   0.223E+00    0.175E+01
DAV:   6    -0.645085335283E+02    0.32332E+00   -0.19772E-01  1232   0.165E+00    0.104E+01
DAV:   7    -0.643608162405E+02    0.14772E+00   -0.35932E-01  1216   0.226E+00    0.448E-01
DAV:   8    -0.643605714997E+02    0.24474E-03   -0.31979E-02  1224   0.729E-01    0.231E-01
DAV:   9    -0.643605486313E+02    0.22868E-04   -0.17744E-03  1432   0.173E-01    0.203E-01
DAV:  10    -0.643603236704E+02    0.22496E-03   -0.36502E-04  1184   0.744E-02    0.145E-01
DAV:  11    -0.643600850489E+02    0.23862E-03   -0.39977E-04  1216   0.728E-02    0.568E-02
DAV:  12    -0.643601575946E+02   -0.72546E-04   -0.68594E-05  1192   0.314E-02    0.152E-02
DAV:  13    -0.643603677368E+02   -0.21014E-03   -0.79286E-05  1152   0.328E-02    0.419E-02
DAV:  14    -0.643605171816E+02   -0.14944E-03   -0.22645E-05  1024   0.165E-02    0.372E-02
DAV:  15    -0.643605507680E+02   -0.33586E-04   -0.21277E-06   768   0.674E-03    0.246E-02
DAV:  16    -0.643607916577E+02   -0.24089E-03   -0.24491E-05   984   0.153E-02    0.263E-02
DAV:  17    -0.643608188653E+02   -0.27208E-04   -0.22668E-06   864   0.604E-03    0.195E-02
DAV:  18    -0.643608324078E+02   -0.13542E-04   -0.64391E-07   768   0.357E-03    0.129E-02
DAV:  19    -0.643608795449E+02   -0.47137E-04   -0.20497E-06   840   0.546E-03    0.298E-03
DAV:  20    -0.643608842771E+02   -0.47321E-05   -0.43965E-07   760   0.293E-03
   1 F= -.66534824E+02 E0= -.66534824E+02  d E =-.351028E-07
