 vasp.5.4.4.18Apr17-6-g9f103f2a35 (build Jun 20 2017 18:00:50) complex          
  
 executed on             LinuxIFC date 2018.03.16  15:57:01
 running on   32 total cores
 distrk:  each k-point on   32 cores,    1 groups
 distr:  one band on NCORES_PER_BAND=   8 cores,    4 groups


--------------------------------------------------------------------------------------------------------


 INCAR:
 POTCAR:    PAW_PBE P 06Sep2000                   
 POTCAR:    PAW_PBE P 06Sep2000                   
   VRHFIN =P : s2p3                                                             
   LEXCH  = PE                                                                  
   EATOM  =   176.0430 eV,   12.9388 Ry                                         
                                                                                
   TITEL  = PAW_PBE P 06Sep2000                                                 
   LULTRA =        F    use ultrasoft PP ?                                      
   IUNSCR =        1    unscreen: 0-lin 1-nonlin 2-no                           
   RPACOR =    1.500    partial core radius                                     
   POMASS =   30.974; ZVAL   =    5.000    mass and valenz                      
   RCORE  =    1.900    outmost cutoff radius                                   
   RWIGS  =    2.330; RWIGS  =    1.233    wigner-seitz radius (au A)           
   ENMAX  =  255.040; ENMIN  =  191.280 eV                                      
   ICORE  =        2    local potential                                         
   LCOR   =        T    correct aug charges                                     
   LPAW   =        T    paw PP                                                  
   EAUG   =  342.924                                                            
   DEXC   =    0.000                                                            
   RMAX   =    1.935    core radius for proj-oper                               
   RAUG   =    1.300    factor for augmentation sphere                          
   RDEP   =    1.931    radius for radial grids                                 
   RDEPT  =    1.794    core radius for aug-charge                              
                                                                                
   Atomic configuration                                                         
    6 entries                                                                   
     n  l   j            E        occ.                                          
     1  0  0.50     -2084.0982   2.0000                                         
     2  0  0.50      -173.9859   2.0000                                         
     2  1  1.50      -124.4865   6.0000                                         
     3  0  0.50       -13.9692   2.0000                                         
     3  1  0.50        -5.5067   3.0000                                         
     3  2  1.50        -5.4423   0.0000                                         
   Description                                                                  
     l       E           TYP  RCUT    TYP  RCUT                                 
     0    -13.9691527     23  1.900                                             
     0    -11.7794650     23  1.900                                             
     1     -5.5066937     23  1.900                                             
     1     -0.2556953     23  1.900                                             
     2     -5.4423304     23  1.900                                             
  local pseudopotential read in
  partial core-charges read in
  partial kinetic energy density read in
  atomic valenz-charges read in
  non local Contribution for L=           0  read in
    real space projection operators read in
  non local Contribution for L=           0  read in
    real space projection operators read in
  non local Contribution for L=           1  read in
    real space projection operators read in
  non local Contribution for L=           1  read in
    real space projection operators read in
    PAW grid and wavefunctions read in
 
   number of l-projection  operators is LMAX  =           4
   number of lm-projection operators is LMMAX =           8
 
  PAW_PBE P 06Sep2000                   :
 energy of atom  1       EATOM= -176.0430
 kinetic energy error for atom=    0.0023 (will be added to EATOM!!)
 
 
 POSCAR: P12                                     
  positions in direct lattice
  No initial velocities read in
 exchange correlation table for  LEXCH =        8
   RHO(1)=    0.500       N(1)  =     2000
   RHO(2)=  100.500       N(2)  =     4000
 


--------------------------------------------------------------------------------------------------------


 ion  position               nearest neighbor table
   1  0.000  0.307  0.919-   2 2.23   2 2.23   3 2.26
   2  0.500  0.307  0.581-   1 2.23   1 2.23   4 2.26
   3  0.000  0.372  0.081-   4 2.23   4 2.23   1 2.26
   4  0.500  0.372  0.419-   3 2.23   3 2.23   2 2.26
   5  0.500  0.467  0.919-   6 2.23   6 2.23   7 2.26
   6  0.000  0.467  0.581-   5 2.23   5 2.23   8 2.26
   7  0.500  0.533  0.081-   8 2.23   8 2.23   5 2.26
   8  0.000  0.533  0.419-   7 2.23   7 2.23   6 2.26
   9  0.000  0.628  0.919-  10 2.23  10 2.23  11 2.26
  10  0.500  0.628  0.581-   9 2.23   9 2.23  12 2.26
  11  0.000  0.693  0.081-  12 2.23  12 2.23   9 2.26
  12  0.500  0.693  0.419-  11 2.23  11 2.23  10 2.26
 
  LATTYP: Found a simple orthorhombic cell.
 ALAT       =     3.3428860000
 B/A-ratio  =     1.3086988309
 C/A-ratio  =     9.7527732026
  
  Lattice vectors:
  
 A1 = (  -3.3428860000,   0.0000000000,   0.0000000000)
 A2 = (   0.0000000000,   0.0000000000,  -4.3748310000)
 A3 = (   0.0000000000, -32.6024090000,   0.0000000000)


Analysis of symmetry for initial positions (statically):
=====================================================================
 Subroutine PRICEL returns:
 Original cell was already a primitive cell.
 

 Routine SETGRP: Setting up the symmetry group for a 
 simple orthorhombic supercell.


 Subroutine GETGRP returns: Found  8 space group operations
 (whereof  4 operations were pure point group operations)
 out of a pool of  8 trial point group operations.


The static configuration has the point symmetry C_2h.
 The point group associated with its full space group is D_2h.


Analysis of symmetry for dynamics (positions and initial velocities):
=====================================================================
 Subroutine PRICEL returns:
 Original cell was already a primitive cell.
 

 Routine SETGRP: Setting up the symmetry group for a 
 simple orthorhombic supercell.


 Subroutine GETGRP returns: Found  8 space group operations
 (whereof  4 operations were pure point group operations)
 out of a pool of  8 trial point group operations.


The dynamic configuration has the point symmetry C_2h.
 The point group associated with its full space group is D_2h.


 Subroutine INISYM returns: Found  8 space group operations
 (whereof  4 operations are pure point group operations),
 and found     1 'primitive' translations

 
 
 KPOINTS: Automatic mesh                          

Automatic generation of k-mesh.
Space group operators:
 irot       det(A)        alpha          n_x          n_y          n_z        tau_x        tau_y        tau_z
    1     1.000000     0.000001     1.000000     0.000000     0.000000     0.000000     0.000000     0.000000
    2    -1.000000     0.000001     1.000000     0.000000     0.000000     0.000000     0.000000     0.000000
    3     1.000000   179.999999     1.000000     0.000000     0.000000     0.000000     0.000000     0.000000
    4    -1.000000   179.999999     1.000000     0.000000     0.000000     0.000000     0.000000     0.000000
    5     1.000000   179.999999     0.000000     1.000000     0.000000    -0.500000     0.000000    -0.500000
    6    -1.000000   179.999999     0.000000     1.000000     0.000000    -0.500000     0.000000    -0.500000
    7     1.000000   179.999999     0.000000     0.000000     1.000000    -0.500000     0.000000    -0.500000
    8    -1.000000   179.999999     0.000000     0.000000     1.000000    -0.500000     0.000000    -0.500000
 
 Subroutine IBZKPT returns following result:
 ===========================================
 
 Found     12 irreducible k-points:
 
 Following reciprocal coordinates:
            Coordinates               Weight
  0.000000  0.000000  0.000000      1.000000
  0.142857  0.000000  0.000000      2.000000
  0.285714  0.000000  0.000000      2.000000
  0.428571  0.000000  0.000000      2.000000
  0.000000  0.000000  0.200000      2.000000
  0.142857  0.000000  0.200000      4.000000
  0.285714  0.000000  0.200000      4.000000
  0.428571  0.000000  0.200000      4.000000
  0.000000  0.000000  0.400000      2.000000
  0.142857  0.000000  0.400000      4.000000
  0.285714  0.000000  0.400000      4.000000
  0.428571  0.000000  0.400000      4.000000
 
 Following cartesian coordinates:
            Coordinates               Weight
  0.000000  0.000000  0.000000      1.000000
  0.042735  0.000000  0.000000      2.000000
  0.085469  0.000000  0.000000      2.000000
  0.128204  0.000000  0.000000      2.000000
  0.000000  0.000000  0.045716      2.000000
  0.042735  0.000000  0.045716      4.000000
  0.085469  0.000000  0.045716      4.000000
  0.128204  0.000000  0.045716      4.000000
  0.000000  0.000000  0.091432      2.000000
  0.042735  0.000000  0.091432      4.000000
  0.085469  0.000000  0.091432      4.000000
  0.128204  0.000000  0.091432      4.000000
 


--------------------------------------------------------------------------------------------------------




 Dimension of arrays:
   k-points           NKPTS =     12   k-points in BZ     NKDIM =     12   number of bands    NBANDS=     40
   number of dos      NEDOS =   2000   number of ions     NIONS =     12
   non local maximal  LDIM  =      4   non local SUM 2l+1 LMDIM =      8
   total plane-waves  NPLWV =  61440
   max r-space proj   IRMAX =      1   max aug-charges    IRDMAX=   4120
   dimension x,y,z NGX =    16 NGY =  160 NGZ =   24
   dimension x,y,z NGXF=    32 NGYF=  320 NGZF=   48
   support grid    NGXF=    32 NGYF=  320 NGZF=   48
   ions per type =              12
   NGX,Y,Z   is equivalent  to a cutoff of   7.96,  8.16,  9.12 a.u.
   NGXF,Y,Z  is equivalent  to a cutoff of  15.91, 16.32, 18.24 a.u.

 SYSTEM =  Generic Input                           
 POSCAR =  P12                                     

 Startparameter for this run:
   NWRITE =      2    write-flag & timer
   PREC   = normal    normal or accurate (medium, high low for compatibility)
   ISTART =      0    job   : 0-new  1-cont  2-samecut
   ICHARG =      2    charge: 1-file 2-atom 10-const
   ISPIN  =      1    spin polarized calculation?
   LNONCOLLINEAR =      F non collinear calculations
   LSORBIT =      F    spin-orbit coupling
   INIWAV =      1    electr: 0-lowe 1-rand  2-diag
   LASPH  =      T    aspherical Exc in radial PAW
   METAGGA=      F    non-selfconsistent MetaGGA calc.

 Electronic Relaxation 1
   ENCUT  =  400.0 eV  29.40 Ry    5.42 a.u.   5.45 53.17  7.13*2*pi/ulx,y,z
   ENINI  =  400.0     initial cutoff
   ENAUG  =  342.9 eV  augmentation charge cutoff
   NELM   =    200;   NELMIN=  2; NELMDL=  0     # of ELM steps 
   EDIFF  = 0.1E-04   stopping-criterion for ELM
   LREAL  =      F    real-space projection
   NLSPLINE    = F    spline interpolate recip. space projectors
   LCOMPAT=      F    compatible to vasp.4.4
   GGA_COMPAT  = T    GGA compatible to vasp.4.4-vasp.4.6
   LMAXPAW     = -100 max onsite density
   LMAXMIX     =    2 max onsite mixed and CHGCAR
   VOSKOWN=      0    Vosko Wilk Nusair interpolation
   ROPT   =    0.00000
 Ionic relaxation
   EDIFFG = -.2E-01   stopping-criterion for IOM
   NSW    =      0    number of steps for IOM
   NBLOCK =      1;   KBLOCK =      1    inner block; outer block 
   IBRION =     -1    ionic relax: 0-MD 1-quasi-New 2-CG
   NFREE  =      1    steps in history (QN), initial steepest desc. (CG)
   ISIF   =      3    stress and relaxation
   IWAVPR =     11    prediction:  0-non 1-charg 2-wave 3-comb
   ISYM   =      2    0-nonsym 1-usesym 2-fastsym
   LCORR  =      T    Harris-Foulkes like correction to forces

   POTIM  = 0.5000    time-step for ionic-motion
   TEIN   =    0.0    initial temperature
   TEBEG  =    0.0;   TEEND  =   0.0 temperature during run
   SMASS  =  -3.00    Nose mass-parameter (am)
   estimated Nose-frequenzy (Omega)   =  0.10E-29 period in steps =****** mass=  -0.255E-27a.u.
   SCALEE = 1.0000    scale energy and forces
   NPACO  =    256;   APACO  = 16.0  distance and # of slots for P.C.
   PSTRESS=    0.0 pullay stress

  Mass of Ions in am
   POMASS =  30.97
  Ionic Valenz
   ZVAL   =   5.00
  Atomic Wigner-Seitz radii
   RWIGS  =  -1.00
  virtual crystal weights 
   VCA    =   1.00
   NELECT =      60.0000    total number of electrons
   NUPDOWN=      -1.0000    fix difference up-down

 DOS related values:
   EMIN   =  10.00;   EMAX   =-10.00  energy-range for DOS
   EFERMI =   0.00
   ISMEAR =     0;   SIGMA  =   0.01  broadening in eV -4-tet -1-fermi 0-gaus

 Electronic relaxation 2 (details)
   IALGO  =     38    algorithm
   LDIAG  =      T    sub-space diagonalisation (order eigenvalues)
   LSUBROT=      F    optimize rotation matrix (better conditioning)
   TURBO    =      0    0=normal 1=particle mesh
   IRESTART =      0    0=no restart 2=restart with 2 vectors
   NREBOOT  =      0    no. of reboots
   NMIN     =      0    reboot dimension
   EREF     =   0.00    reference energy to select bands
   IMIX   =      4    mixing-type and parameters
     AMIX     =   0.40;   BMIX     =  1.00
     AMIX_MAG =   1.60;   BMIX_MAG =  1.00
     AMIN     =   0.10
     WC   =   100.;   INIMIX=   1;  MIXPRE=   1;  MAXMIX= -45

 Intra band minimization:
   WEIMIN = 0.0000     energy-eigenvalue tresh-hold
   EBREAK =  0.63E-07  absolut break condition
   DEPER  =   0.30     relativ break condition  

   TIME   =   0.40     timestep for ELM

  volume/ion in A,a.u.               =      39.73       268.13
  Fermi-wavevector in a.u.,A,eV,Ry     =   0.820379  1.550291  9.157011  0.673021
  Thomas-Fermi vector in A             =   1.931350
 
 Write flags
   LWAVE        =      T    write WAVECAR
   LDOWNSAMPLE  =      F    k-point downsampling of WAVECAR
   LCHARG       =      T    write CHGCAR
   LVTOT        =      F    write LOCPOT, total local potential
   LVHAR        =      T    write LOCPOT, Hartree potential only
   LELF         =      F    write electronic localiz. function (ELF)
   LORBIT       =     11    0 simple, 1 ext, 2 COOP (PROOUT), +10 PAW based schemes


 Dipole corrections
   LMONO  =      F    monopole corrections only (constant potential shift)
   LDIPOL =      F    correct potential (dipole corrections)
   IDIPOL =      0    1-x, 2-y, 3-z, 4-all directions 
   EPSILON=  1.0000000 bulk dielectric constant

 Core level calculations are selected ICORELEVEL =  1
 Exchange correlation treatment:
   GGA     =    PE    GGA type
   LEXCH   =     8    internal setting for exchange type
   VOSKOWN=      0    Vosko Wilk Nusair interpolation
   LHFCALC =     F    Hartree Fock is set to
   LHFONE  =     F    Hartree Fock one center treatment
   AEXX    =    0.0000 exact exchange contribution

 Linear response parameters
   LEPSILON=     F    determine dielectric tensor
   LRPA    =     F    only Hartree local field effects (RPA)
   LNABLA  =     F    use nabla operator in PAW spheres
   LVEL    =     F    velocity operator in full k-point grid
   LINTERFAST=   F  fast interpolation
   KINTER  =     0    interpolate to denser k-point grid
   CSHIFT  =0.1000    complex shift for real part using Kramers Kronig
   OMEGAMAX=  -1.0    maximum frequency
   DEG_THRESHOLD= 0.2000000E-02 threshold for treating states as degnerate
   RTIME   =   -0.100 relaxation time in fs
  (WPLASMAI=    0.000 imaginary part of plasma frequency in eV, 0.658/RTIME)
   DFIELD  = 0.0000000 0.0000000 0.0000000 field for delta impulse in time
 
 Orbital magnetization related:
   ORBITALMAG=     F  switch on orbital magnetization
   LCHIMAG   =     F  perturbation theory with respect to B field
   DQ        =  0.001000  dq finite difference perturbation B field
   LLRAUG    =     F  two centre corrections for induced B field



--------------------------------------------------------------------------------------------------------


 Static calculation
 charge density and potential will be updated during run
 non-spin polarized calculation
 Variant of blocked Davidson
 Davidson routine will perform the subspace rotation
 perform sub-space diagonalisation
    after iterative eigenvector-optimisation
 modified Broyden-mixing scheme, WC =      100.0
 initial mixing is a Kerker type mixing with AMIX =  0.4000 and BMIX =      1.0000
 Hartree-type preconditioning will be used
 using additional bands           10
 reciprocal scheme for non local part
 use partial core corrections
 calculate Harris-corrections to forces 
   (improved forces if not selfconsistent)
 use gradient corrections 
 use of overlap-Matrix (Vanderbilt PP)
 Gauss-broadening in eV      SIGMA  =   0.01


--------------------------------------------------------------------------------------------------------


  energy-cutoff  :      400.00
  volume of cell :      476.80
      direct lattice vectors                 reciprocal lattice vectors
     3.342886000  0.000000000  0.000000000     0.299142717  0.000000000  0.000000000
     0.000000000 32.602409000  0.000000000     0.000000000  0.030672580  0.000000000
     0.000000000  0.000000000  4.374831000     0.000000000  0.000000000  0.228580258

  length of vectors
     3.342886000 32.602409000  4.374831000     0.299142717  0.030672580  0.228580258


 
 k-points in units of 2pi/SCALE and weight: Automatic mesh                          
   0.00000000  0.00000000  0.00000000       0.029
   0.04273467  0.00000000  0.00000000       0.057
   0.08546935  0.00000000  0.00000000       0.057
   0.12820402  0.00000000  0.00000000       0.057
   0.00000000  0.00000000  0.04571605       0.057
   0.04273467  0.00000000  0.04571605       0.114
   0.08546935  0.00000000  0.04571605       0.114
   0.12820402  0.00000000  0.04571605       0.114
   0.00000000  0.00000000  0.09143210       0.057
   0.04273467  0.00000000  0.09143210       0.114
   0.08546935  0.00000000  0.09143210       0.114
   0.12820402  0.00000000  0.09143210       0.114
 
 k-points in reciprocal lattice and weights: Automatic mesh                          
   0.00000000  0.00000000  0.00000000       0.029
   0.14285714  0.00000000  0.00000000       0.057
   0.28571429  0.00000000  0.00000000       0.057
   0.42857143  0.00000000  0.00000000       0.057
   0.00000000  0.00000000  0.20000000       0.057
   0.14285714  0.00000000  0.20000000       0.114
   0.28571429  0.00000000  0.20000000       0.114
   0.42857143  0.00000000  0.20000000       0.114
   0.00000000  0.00000000  0.40000000       0.057
   0.14285714  0.00000000  0.40000000       0.114
   0.28571429  0.00000000  0.40000000       0.114
   0.42857143  0.00000000  0.40000000       0.114
 
 position of ions in fractional coordinates (direct lattice) 
   0.00000000  0.30672600  0.91892400
   0.50000000  0.30672600  0.58107600
   0.00000000  0.37246700  0.08107600
   0.50000000  0.37246700  0.41892400
   0.50000000  0.46712900  0.91892400
   0.00000000  0.46712900  0.58107600
   0.50000000  0.53287100  0.08107600
   0.00000000  0.53287100  0.41892400
   0.00000000  0.62753300  0.91892400
   0.50000000  0.62753300  0.58107600
   0.00000000  0.69327400  0.08107600
   0.50000000  0.69327400  0.41892400
 
 position of ions in cartesian coordinates  (Angst):
   0.00000000 10.00000650  4.02013720
   1.67144300 10.00000650  2.54210930
   0.00000000 12.14332147  0.35469380
   1.67144300 12.14332147  1.83272170
   1.67144300 15.22953071  4.02013720
   0.00000000 15.22953071  2.54210930
   1.67144300 17.37287829  0.35469380
   0.00000000 17.37287829  1.83272170
   0.00000000 20.45908753  4.02013720
   1.67144300 20.45908753  2.54210930
   0.00000000 22.60240250  0.35469380
   1.67144300 22.60240250  1.83272170
 


--------------------------------------------------------------------------------------------------------


 k-point  1 :   0.0000 0.0000 0.0000  plane waves:    8627
 k-point  2 :   0.1429 0.0000 0.0000  plane waves:    8663
 k-point  3 :   0.2857 0.0000 0.0000  plane waves:    8673
 k-point  4 :   0.4286 0.0000 0.0000  plane waves:    8635
 k-point  5 :   0.0000 0.0000 0.2000  plane waves:    8700
 k-point  6 :   0.1429 0.0000 0.2000  plane waves:    8685
 k-point  7 :   0.2857 0.0000 0.2000  plane waves:    8649
 k-point  8 :   0.4286 0.0000 0.2000  plane waves:    8613
 k-point  9 :   0.0000 0.0000 0.4000  plane waves:    8762
 k-point 10 :   0.1429 0.0000 0.4000  plane waves:    8697
 k-point 11 :   0.2857 0.0000 0.4000  plane waves:    8667
 k-point 12 :   0.4286 0.0000 0.4000  plane waves:    8601

 maximum and minimum number of plane-waves per node :      1111     1062

 maximum number of plane-waves:      8762
 maximum index in each direction: 
   IXMAX=    5   IYMAX=   53   IZMAX=    7
   IXMIN=   -5   IYMIN=  -53   IZMIN=   -7


 parallel 3D FFT for wavefunctions:
    minimum data exchange during FFTs selected (reduces bandwidth)
 parallel 3D FFT for charge:
    minimum data exchange during FFTs selected (reduces bandwidth)


 total amount of memory used by VASP MPI-rank0    35100. kBytes
=======================================================================

   base      :      30000. kBytes
   nonl-proj :       1067. kBytes
   fftplans  :        792. kBytes
   grid      :       1070. kBytes
   one-center:          6. kBytes
   wavefun   :       2165. kBytes
 
     INWAV:  cpu time    0.0000: real time    0.0000
 Broyden mixing: mesh for mixing (old mesh)
   NGX = 11   NGY =107   NGZ = 15
  (NGX  = 32   NGY  =320   NGZ  = 48)
  gives a total of  17655 points

 initial charge density was supplied:
 charge density of overlapping atoms calculated
 number of electron      60.0000000 magnetization 
 keeping initial charge density in first step


--------------------------------------------------------------------------------------------------------


 Maximum index for augmentation-charges          313 (set IRDMAX)


--------------------------------------------------------------------------------------------------------


 First call to EWALD:  gamma=   0.227
 Maximum number of real-space cells 6x 1x 5
 Maximum number of reciprocal cells 1x10x 2

    FEWALD:  cpu time    0.0017: real time    0.0017


--------------------------------------- Iteration      1(   1)  ---------------------------------------


    POTLOK:  cpu time    0.0244: real time    0.0370
    SETDIJ:  cpu time    0.0642: real time    0.0644
     EDDAV:  cpu time    0.4949: real time    0.4960
       DOS:  cpu time    0.0006: real time    0.0006
    --------------------------------------------
      LOOP:  cpu time    0.5841: real time    0.5980

 eigenvalue-minimisations  :   960
 total energy-change (2. order) : 0.3387898E+03  (-0.1930372E+04)
 number of electron      60.0000000 magnetization 
 augmentation part       60.0000000 magnetization 

 Free energy of the ion-electron system (eV)
  ---------------------------------------------------
  alpha Z        PSCENC =        30.28014394
  Ewald energy   TEWEN  =     14973.24208224
  -Hartree energ DENC   =    -16928.93300519
  -exchange      EXHF   =         0.00000000
  -V(xc)+E(xc)   XCENC  =        40.33410248
  PAW double counting   =      1677.12035881    -1579.18296132
  entropy T*S    EENTRO =        -0.00064610
  eigenvalues    EBANDS =        13.44107861
  atomic energy  EATOM  =      2112.48864025
  Solvation  Ediel_sol  =         0.00000000
  ---------------------------------------------------
  free energy    TOTEN  =       338.78979372 eV

  energy without entropy =      338.79043982  energy(sigma->0) =      338.79011677


--------------------------------------------------------------------------------------------------------




--------------------------------------- Iteration      1(   2)  ---------------------------------------


     EDDAV:  cpu time    0.6116: real time    0.6137
       DOS:  cpu time    0.0006: real time    0.0006
    --------------------------------------------
      LOOP:  cpu time    0.6121: real time    0.6143

 eigenvalue-minimisations  :  1368
 total energy-change (2. order) :-0.3658817E+03  (-0.3548092E+03)
 number of electron      60.0000000 magnetization 
 augmentation part       60.0000000 magnetization 

 Free energy of the ion-electron system (eV)
  ---------------------------------------------------
  alpha Z        PSCENC =        30.28014394
  Ewald energy   TEWEN  =     14973.24208224
  -Hartree energ DENC   =    -16928.93300519
  -exchange      EXHF   =         0.00000000
  -V(xc)+E(xc)   XCENC  =        40.33410248
  PAW double counting   =      1677.12035881    -1579.18296132
  entropy T*S    EENTRO =        -0.00063696
  eigenvalues    EBANDS =      -352.44067271
  atomic energy  EATOM  =      2112.48864025
  Solvation  Ediel_sol  =         0.00000000
  ---------------------------------------------------
  free energy    TOTEN  =       -27.09194846 eV

  energy without entropy =      -27.09131150  energy(sigma->0) =      -27.09162998


--------------------------------------------------------------------------------------------------------




--------------------------------------- Iteration      1(   3)  ---------------------------------------


     EDDAV:  cpu time    0.5375: real time    0.5395
       DOS:  cpu time    0.0004: real time    0.0004
    --------------------------------------------
      LOOP:  cpu time    0.5379: real time    0.5399

 eigenvalue-minimisations  :  1152
 total energy-change (2. order) :-0.3634668E+02  (-0.3576154E+02)
 number of electron      60.0000000 magnetization 
 augmentation part       60.0000000 magnetization 

 Free energy of the ion-electron system (eV)
  ---------------------------------------------------
  alpha Z        PSCENC =        30.28014394
  Ewald energy   TEWEN  =     14973.24208224
  -Hartree energ DENC   =    -16928.93300519
  -exchange      EXHF   =         0.00000000
  -V(xc)+E(xc)   XCENC  =        40.33410248
  PAW double counting   =      1677.12035881    -1579.18296132
  entropy T*S    EENTRO =        -0.00000000
  eigenvalues    EBANDS =      -388.78798808
  atomic energy  EATOM  =      2112.48864025
  Solvation  Ediel_sol  =         0.00000000
  ---------------------------------------------------
  free energy    TOTEN  =       -63.43862688 eV

  energy without entropy =      -63.43862688  energy(sigma->0) =      -63.43862688


--------------------------------------------------------------------------------------------------------




--------------------------------------- Iteration      1(   4)  ---------------------------------------


     EDDAV:  cpu time    0.6427: real time    0.6450
       DOS:  cpu time    0.0004: real time    0.0004
    --------------------------------------------
      LOOP:  cpu time    0.6431: real time    0.6454

 eigenvalue-minimisations  :  1432
 total energy-change (2. order) :-0.1357479E+01  (-0.1349883E+01)
 number of electron      60.0000000 magnetization 
 augmentation part       60.0000000 magnetization 

 Free energy of the ion-electron system (eV)
  ---------------------------------------------------
  alpha Z        PSCENC =        30.28014394
  Ewald energy   TEWEN  =     14973.24208224
  -Hartree energ DENC   =    -16928.93300519
  -exchange      EXHF   =         0.00000000
  -V(xc)+E(xc)   XCENC  =        40.33410248
  PAW double counting   =      1677.12035881    -1579.18296132
  entropy T*S    EENTRO =        -0.00000000
  eigenvalues    EBANDS =      -390.14546724
  atomic energy  EATOM  =      2112.48864025
  Solvation  Ediel_sol  =         0.00000000
  ---------------------------------------------------
  free energy    TOTEN  =       -64.79610604 eV

  energy without entropy =      -64.79610604  energy(sigma->0) =      -64.79610604


--------------------------------------------------------------------------------------------------------




--------------------------------------- Iteration      1(   5)  ---------------------------------------


     EDDAV:  cpu time    0.6425: real time    0.6446
       DOS:  cpu time    0.0004: real time    0.0004
    CHARGE:  cpu time    0.0269: real time    0.0269
    MIXING:  cpu time    0.0007: real time    0.0007
    --------------------------------------------
      LOOP:  cpu time    0.6705: real time    0.6725

 eigenvalue-minimisations  :  1448
 total energy-change (2. order) :-0.3575244E-01  (-0.3572753E-01)
 number of electron      59.9999940 magnetization 
 augmentation part       -6.5184598 magnetization 

 Broyden mixing:
  rms(total) = 0.17536E+01    rms(broyden)= 0.17536E+01
  rms(prec ) = 0.17591E+01
  weight for this iteration     100.00

 Free energy of the ion-electron system (eV)
  ---------------------------------------------------
  alpha Z        PSCENC =        30.28014394
  Ewald energy   TEWEN  =     14973.24208224
  -Hartree energ DENC   =    -16928.93300519
  -exchange      EXHF   =         0.00000000
  -V(xc)+E(xc)   XCENC  =        40.33410248
  PAW double counting   =      1677.12035881    -1579.18296132
  entropy T*S    EENTRO =        -0.00000000
  eigenvalues    EBANDS =      -390.18121969
  atomic energy  EATOM  =      2112.48864025
  Solvation  Ediel_sol  =         0.00000000
  ---------------------------------------------------
  free energy    TOTEN  =       -64.83185848 eV

  energy without entropy =      -64.83185848  energy(sigma->0) =      -64.83185848


--------------------------------------------------------------------------------------------------------




--------------------------------------- Iteration      1(   6)  ---------------------------------------


    POTLOK:  cpu time    0.0126: real time    0.0139
    SETDIJ:  cpu time    0.0650: real time    0.0650
     EDDAV:  cpu time    0.5725: real time    0.5733
       DOS:  cpu time    0.0004: real time    0.0004
    CHARGE:  cpu time    0.0264: real time    0.0264
    MIXING:  cpu time    0.0007: real time    0.0007
    --------------------------------------------
      LOOP:  cpu time    0.6776: real time    0.6797

 eigenvalue-minimisations  :  1232
 total energy-change (2. order) : 0.3233250E+00  (-0.1977193E-01)
 number of electron      59.9999940 magnetization 
 augmentation part       -6.4805777 magnetization 

 Broyden mixing:
  rms(total) = 0.10378E+01    rms(broyden)= 0.10378E+01
  rms(prec ) = 0.10410E+01
  weight for this iteration     100.00

 eigenvalues of (default mixing * dielectric matrix)
  average eigenvalue GAMMA=   2.4417
  2.4417

 Free energy of the ion-electron system (eV)
  ---------------------------------------------------
  alpha Z        PSCENC =        30.28014394
  Ewald energy   TEWEN  =     14973.24208224
  -Hartree energ DENC   =    -16941.10132253
  -exchange      EXHF   =         0.00000000
  -V(xc)+E(xc)   XCENC  =        41.37395610
  PAW double counting   =      3130.12993797    -3032.65385965
  entropy T*S    EENTRO =        -0.00000000
  eigenvalues    EBANDS =      -378.26811184
  atomic energy  EATOM  =      2112.48864025
  Solvation  Ediel_sol  =         0.00000000
  ---------------------------------------------------
  free energy    TOTEN  =       -64.50853353 eV

  energy without entropy =      -64.50853353  energy(sigma->0) =      -64.50853353


--------------------------------------------------------------------------------------------------------




--------------------------------------- Iteration      1(   7)  ---------------------------------------


    POTLOK:  cpu time    0.0125: real time    0.0144
    SETDIJ:  cpu time    0.0647: real time    0.0647
     EDDAV:  cpu time    0.5682: real time    0.5689
       DOS:  cpu time    0.0005: real time    0.0005
    CHARGE:  cpu time    0.0264: real time    0.0264
    MIXING:  cpu time    0.0006: real time    0.0006
    --------------------------------------------
      LOOP:  cpu time    0.6729: real time    0.6754

 eigenvalue-minimisations  :  1216
 total energy-change (2. order) : 0.1477173E+00  (-0.3593219E-01)
 number of electron      59.9999940 magnetization 
 augmentation part       -6.4343954 magnetization 

 Broyden mixing:
  rms(total) = 0.44789E-01    rms(broyden)= 0.44788E-01
  rms(prec ) = 0.46084E-01
  weight for this iteration     100.00

 eigenvalues of (default mixing * dielectric matrix)
  average eigenvalue GAMMA=   2.0636
  1.5893  2.5380

 Free energy of the ion-electron system (eV)
  ---------------------------------------------------
  alpha Z        PSCENC =        30.28014394
  Ewald energy   TEWEN  =     14973.24208224
  -Hartree energ DENC   =    -16959.71885660
  -exchange      EXHF   =         0.00000000
  -V(xc)+E(xc)   XCENC  =        43.05197886
  PAW double counting   =      6217.17272239    -6120.25967137
  entropy T*S    EENTRO =        -0.00000013
  eigenvalues    EBANDS =      -360.61785582
  atomic energy  EATOM  =      2112.48864025
  Solvation  Ediel_sol  =         0.00000000
  ---------------------------------------------------
  free energy    TOTEN  =       -64.36081624 eV

  energy without entropy =      -64.36081611  energy(sigma->0) =      -64.36081618


--------------------------------------------------------------------------------------------------------




--------------------------------------- Iteration      1(   8)  ---------------------------------------


    POTLOK:  cpu time    0.0125: real time    0.0144
    SETDIJ:  cpu time    0.0645: real time    0.0645
     EDDAV:  cpu time    0.5897: real time    0.5905
       DOS:  cpu time    0.0005: real time    0.0005
    CHARGE:  cpu time    0.0272: real time    0.0272
    MIXING:  cpu time    0.0006: real time    0.0006
    --------------------------------------------
      LOOP:  cpu time    0.6950: real time    0.6977

 eigenvalue-minimisations  :  1224
 total energy-change (2. order) : 0.2447408E-03  (-0.3197937E-02)
 number of electron      59.9999940 magnetization 
 augmentation part       -6.4446770 magnetization 

 Broyden mixing:
  rms(total) = 0.23118E-01    rms(broyden)= 0.23118E-01
  rms(prec ) = 0.23800E-01
  weight for this iteration     100.00

 eigenvalues of (default mixing * dielectric matrix)
  average eigenvalue GAMMA=   1.5898
  2.5251  0.9322  1.3119

 Free energy of the ion-electron system (eV)
  ---------------------------------------------------
  alpha Z        PSCENC =        30.28014394
  Ewald energy   TEWEN  =     14973.24208224
  -Hartree energ DENC   =    -16960.93497737
  -exchange      EXHF   =         0.00000000
  -V(xc)+E(xc)   XCENC  =        43.08971235
  PAW double counting   =      6337.32358147    -6240.33981196
  entropy T*S    EENTRO =        -0.00000003
  eigenvalues    EBANDS =      -359.50994238
  atomic energy  EATOM  =      2112.48864025
  Solvation  Ediel_sol  =         0.00000000
  ---------------------------------------------------
  free energy    TOTEN  =       -64.36057150 eV

  energy without entropy =      -64.36057147  energy(sigma->0) =      -64.36057148


--------------------------------------------------------------------------------------------------------




--------------------------------------- Iteration      1(   9)  ---------------------------------------


    POTLOK:  cpu time    0.0127: real time    0.0144
    SETDIJ:  cpu time    0.0649: real time    0.0649
     EDDAV:  cpu time    0.6404: real time    0.6412
       DOS:  cpu time    0.0006: real time    0.0006
    CHARGE:  cpu time    0.0266: real time    0.0266
    MIXING:  cpu time    0.0006: real time    0.0006
    --------------------------------------------
      LOOP:  cpu time    0.7457: real time    0.7483

 eigenvalue-minimisations  :  1432
 total energy-change (2. order) : 0.2286839E-04  (-0.1774378E-03)
 number of electron      59.9999940 magnetization 
 augmentation part       -6.4450729 magnetization 

 Broyden mixing:
  rms(total) = 0.20276E-01    rms(broyden)= 0.20276E-01
  rms(prec ) = 0.20841E-01
  weight for this iteration     100.00

 eigenvalues of (default mixing * dielectric matrix)
  average eigenvalue GAMMA=   1.8581
  2.3178  2.3178  1.3983  1.3983

 Free energy of the ion-electron system (eV)
  ---------------------------------------------------
  alpha Z        PSCENC =        30.28014394
  Ewald energy   TEWEN  =     14973.24208224
  -Hartree energ DENC   =    -16961.69117576
  -exchange      EXHF   =         0.00000000
  -V(xc)+E(xc)   XCENC  =        43.09576517
  PAW double counting   =      6331.17799094    -6234.18673413
  entropy T*S    EENTRO =        -0.00000003
  eigenvalues    EBANDS =      -358.76726124
  atomic energy  EATOM  =      2112.48864025
  Solvation  Ediel_sol  =         0.00000000
  ---------------------------------------------------
  free energy    TOTEN  =       -64.36054863 eV

  energy without entropy =      -64.36054860  energy(sigma->0) =      -64.36054862


--------------------------------------------------------------------------------------------------------




--------------------------------------- Iteration      1(  10)  ---------------------------------------


    POTLOK:  cpu time    0.0139: real time    0.0140
    SETDIJ:  cpu time    0.0645: real time    0.0645
     EDDAV:  cpu time    0.5546: real time    0.5554
       DOS:  cpu time    0.0005: real time    0.0005
    CHARGE:  cpu time    0.0263: real time    0.0263
    MIXING:  cpu time    0.0007: real time    0.0007
    --------------------------------------------
      LOOP:  cpu time    0.6604: real time    0.6614

 eigenvalue-minimisations  :  1184
 total energy-change (2. order) : 0.2249609E-03  (-0.3650160E-04)
 number of electron      59.9999940 magnetization 
 augmentation part       -6.4463001 magnetization 

 Broyden mixing:
  rms(total) = 0.14535E-01    rms(broyden)= 0.14535E-01
  rms(prec ) = 0.15015E-01
  weight for this iteration     100.00

 eigenvalues of (default mixing * dielectric matrix)
  average eigenvalue GAMMA=   1.7648
  2.5490  2.5490  1.0321  1.3470  1.3470

 Free energy of the ion-electron system (eV)
  ---------------------------------------------------
  alpha Z        PSCENC =        30.28014394
  Ewald energy   TEWEN  =     14973.24208224
  -Hartree energ DENC   =    -16962.70512592
  -exchange      EXHF   =         0.00000000
  -V(xc)+E(xc)   XCENC  =        43.08114994
  PAW double counting   =      6258.53591146    -6161.52090114
  entropy T*S    EENTRO =        -0.00000002
  eigenvalues    EBANDS =      -357.76222442
  atomic energy  EATOM  =      2112.48864025
  Solvation  Ediel_sol  =         0.00000000
  ---------------------------------------------------
  free energy    TOTEN  =       -64.36032367 eV

  energy without entropy =      -64.36032365  energy(sigma->0) =      -64.36032366


--------------------------------------------------------------------------------------------------------




--------------------------------------- Iteration      1(  11)  ---------------------------------------


    POTLOK:  cpu time    0.0127: real time    0.0140
    SETDIJ:  cpu time    0.0645: real time    0.0645
     EDDAV:  cpu time    0.5608: real time    0.5614
       DOS:  cpu time    0.0005: real time    0.0005
    CHARGE:  cpu time    0.0269: real time    0.0269
    MIXING:  cpu time    0.0007: real time    0.0007
    --------------------------------------------
      LOOP:  cpu time    0.6661: real time    0.6679

 eigenvalue-minimisations  :  1216
 total energy-change (2. order) : 0.2386215E-03  (-0.3997703E-04)
 number of electron      59.9999940 magnetization 
 augmentation part       -6.4458685 magnetization 

 Broyden mixing:
  rms(total) = 0.56781E-02    rms(broyden)= 0.56781E-02
  rms(prec ) = 0.61276E-02
  weight for this iteration     100.00

 eigenvalues of (default mixing * dielectric matrix)
  average eigenvalue GAMMA=   1.7069
  2.5769  2.5769  1.2599  1.2599  1.2839  1.2839

 Free energy of the ion-electron system (eV)
  ---------------------------------------------------
  alpha Z        PSCENC =        30.28014394
  Ewald energy   TEWEN  =     14973.24208224
  -Hartree energ DENC   =    -16964.61337133
  -exchange      EXHF   =         0.00000000
  -V(xc)+E(xc)   XCENC  =        43.11118920
  PAW double counting   =      6272.65655460    -6175.63563900
  entropy T*S    EENTRO =        -0.00000002
  eigenvalues    EBANDS =      -355.88968492
  atomic energy  EATOM  =      2112.48864025
  Solvation  Ediel_sol  =         0.00000000
  ---------------------------------------------------
  free energy    TOTEN  =       -64.36008505 eV

  energy without entropy =      -64.36008502  energy(sigma->0) =      -64.36008504


--------------------------------------------------------------------------------------------------------




--------------------------------------- Iteration      1(  12)  ---------------------------------------


    POTLOK:  cpu time    0.0128: real time    0.0144
    SETDIJ:  cpu time    0.0643: real time    0.0645
     EDDAV:  cpu time    0.5528: real time    0.5539
       DOS:  cpu time    0.0005: real time    0.0005
    CHARGE:  cpu time    0.0263: real time    0.0263
    MIXING:  cpu time    0.0007: real time    0.0007
    --------------------------------------------
      LOOP:  cpu time    0.6575: real time    0.6603

 eigenvalue-minimisations  :  1192
 total energy-change (2. order) :-0.7254571E-04  (-0.6859409E-05)
 number of electron      59.9999940 magnetization 
 augmentation part       -6.4457378 magnetization 

 Broyden mixing:
  rms(total) = 0.15243E-02    rms(broyden)= 0.15243E-02
  rms(prec ) = 0.23098E-02
  weight for this iteration     100.00

 eigenvalues of (default mixing * dielectric matrix)
  average eigenvalue GAMMA=   1.7900
  3.0053  2.6054  1.6607  1.6607  1.3239  1.3239  0.9501

 Free energy of the ion-electron system (eV)
  ---------------------------------------------------
  alpha Z        PSCENC =        30.28014394
  Ewald energy   TEWEN  =     14973.24208224
  -Hartree energ DENC   =    -16965.41512701
  -exchange      EXHF   =         0.00000000
  -V(xc)+E(xc)   XCENC  =        43.11853966
  PAW double counting   =      6282.72993945    -6185.70951910
  entropy T*S    EENTRO =        -0.00000003
  eigenvalues    EBANDS =      -355.09485700
  atomic energy  EATOM  =      2112.48864025
  Solvation  Ediel_sol  =         0.00000000
  ---------------------------------------------------
  free energy    TOTEN  =       -64.36015759 eV

  energy without entropy =      -64.36015757  energy(sigma->0) =      -64.36015758


--------------------------------------------------------------------------------------------------------




--------------------------------------- Iteration      1(  13)  ---------------------------------------


    POTLOK:  cpu time    0.0127: real time    0.0145
    SETDIJ:  cpu time    0.0650: real time    0.0650
     EDDAV:  cpu time    0.5397: real time    0.5405
       DOS:  cpu time    0.0006: real time    0.0006
    CHARGE:  cpu time    0.0268: real time    0.0268
    MIXING:  cpu time    0.0008: real time    0.0008
    --------------------------------------------
      LOOP:  cpu time    0.6455: real time    0.6482

 eigenvalue-minimisations  :  1152
 total energy-change (2. order) :-0.2101422E-03  (-0.7928587E-05)
 number of electron      59.9999940 magnetization 
 augmentation part       -6.4455077 magnetization 

 Broyden mixing:
  rms(total) = 0.41888E-02    rms(broyden)= 0.41888E-02
  rms(prec ) = 0.42926E-02
  weight for this iteration     100.00

 eigenvalues of (default mixing * dielectric matrix)
  average eigenvalue GAMMA=   1.8186
  3.6332  2.4183  2.4183  1.6489  1.1820  1.1820  1.0230  1.0434

 Free energy of the ion-electron system (eV)
  ---------------------------------------------------
  alpha Z        PSCENC =        30.28014394
  Ewald energy   TEWEN  =     14973.24208224
  -Hartree energ DENC   =    -16966.69908642
  -exchange      EXHF   =         0.00000000
  -V(xc)+E(xc)   XCENC  =        43.12857319
  PAW double counting   =      6291.48318950    -6194.46232911
  entropy T*S    EENTRO =        -0.00000003
  eigenvalues    EBANDS =      -353.82158129
  atomic energy  EATOM  =      2112.48864025
  Solvation  Ediel_sol  =         0.00000000
  ---------------------------------------------------
  free energy    TOTEN  =       -64.36036774 eV

  energy without entropy =      -64.36036771  energy(sigma->0) =      -64.36036772


--------------------------------------------------------------------------------------------------------




--------------------------------------- Iteration      1(  14)  ---------------------------------------


    POTLOK:  cpu time    0.0131: real time    0.0148
    SETDIJ:  cpu time    0.0650: real time    0.0650
     EDDAV:  cpu time    0.4989: real time    0.4997
       DOS:  cpu time    0.0006: real time    0.0006
    CHARGE:  cpu time    0.0264: real time    0.0264
    MIXING:  cpu time    0.0008: real time    0.0008
    --------------------------------------------
      LOOP:  cpu time    0.6047: real time    0.6073

 eigenvalue-minimisations  :  1024
 total energy-change (2. order) :-0.1494448E-03  (-0.2264541E-05)
 number of electron      59.9999940 magnetization 
 augmentation part       -6.4454315 magnetization 

 Broyden mixing:
  rms(total) = 0.37246E-02    rms(broyden)= 0.37246E-02
  rms(prec ) = 0.37778E-02
  weight for this iteration     100.00

 eigenvalues of (default mixing * dielectric matrix)
  average eigenvalue GAMMA=   1.6537
  3.4336  2.4319  2.4319  1.6330  1.2447  1.2447  1.1547  0.9122  0.3972

 Free energy of the ion-electron system (eV)
  ---------------------------------------------------
  alpha Z        PSCENC =        30.28014394
  Ewald energy   TEWEN  =     14973.24208224
  -Hartree energ DENC   =    -16967.21498159
  -exchange      EXHF   =         0.00000000
  -V(xc)+E(xc)   XCENC  =        43.13031199
  PAW double counting   =      6289.11636238    -6192.09558778
  entropy T*S    EENTRO =        -0.00000003
  eigenvalues    EBANDS =      -353.30748857
  atomic energy  EATOM  =      2112.48864025
  Solvation  Ediel_sol  =         0.00000000
  ---------------------------------------------------
  free energy    TOTEN  =       -64.36051718 eV

  energy without entropy =      -64.36051715  energy(sigma->0) =      -64.36051716


--------------------------------------------------------------------------------------------------------




--------------------------------------- Iteration      1(  15)  ---------------------------------------


    POTLOK:  cpu time    0.0129: real time    0.0143
    SETDIJ:  cpu time    0.0645: real time    0.0645
     EDDAV:  cpu time    0.4150: real time    0.4155
       DOS:  cpu time    0.0005: real time    0.0005
    CHARGE:  cpu time    0.0257: real time    0.0257
    MIXING:  cpu time    0.0008: real time    0.0008
    --------------------------------------------
      LOOP:  cpu time    0.5194: real time    0.5214

 eigenvalue-minimisations  :   768
 total energy-change (2. order) :-0.3358637E-04  (-0.2127732E-06)
 number of electron      59.9999940 magnetization 
 augmentation part       -6.4454376 magnetization 

 Broyden mixing:
  rms(total) = 0.24570E-02    rms(broyden)= 0.24570E-02
  rms(prec ) = 0.25282E-02
  weight for this iteration     100.00

 eigenvalues of (default mixing * dielectric matrix)
  average eigenvalue GAMMA=   1.9845
  5.2734  2.7103  2.3049  2.3049  1.3724  1.3724  1.3068  1.3068  0.9467  0.9467

 Free energy of the ion-electron system (eV)
  ---------------------------------------------------
  alpha Z        PSCENC =        30.28014394
  Ewald energy   TEWEN  =     14973.24208224
  -Hartree energ DENC   =    -16967.23654046
  -exchange      EXHF   =         0.00000000
  -V(xc)+E(xc)   XCENC  =        43.12974719
  PAW double counting   =      6286.77708762    -6189.75638336
  entropy T*S    EENTRO =        -0.00000003
  eigenvalues    EBANDS =      -353.28532815
  atomic energy  EATOM  =      2112.48864025
  Solvation  Ediel_sol  =         0.00000000
  ---------------------------------------------------
  free energy    TOTEN  =       -64.36055077 eV

  energy without entropy =      -64.36055073  energy(sigma->0) =      -64.36055075


--------------------------------------------------------------------------------------------------------




--------------------------------------- Iteration      1(  16)  ---------------------------------------


    POTLOK:  cpu time    0.0130: real time    0.0143
    SETDIJ:  cpu time    0.0650: real time    0.0649
     EDDAV:  cpu time    0.4846: real time    0.4854
       DOS:  cpu time    0.0005: real time    0.0005
    CHARGE:  cpu time    0.0265: real time    0.0265
    MIXING:  cpu time    0.0010: real time    0.0010
    --------------------------------------------
      LOOP:  cpu time    0.5905: real time    0.5928

 eigenvalue-minimisations  :   984
 total energy-change (2. order) :-0.2408897E-03  (-0.2449082E-05)
 number of electron      59.9999940 magnetization 
 augmentation part       -6.4453617 magnetization 

 Broyden mixing:
  rms(total) = 0.26305E-02    rms(broyden)= 0.26305E-02
  rms(prec ) = 0.26395E-02
  weight for this iteration     100.00

 eigenvalues of (default mixing * dielectric matrix)
  average eigenvalue GAMMA=   1.9677
  6.3191  2.6814  2.2700  2.2700  1.9080  1.3114  1.3114  1.0815  0.8733  0.8094
  0.8094

 Free energy of the ion-electron system (eV)
  ---------------------------------------------------
  alpha Z        PSCENC =        30.28014394
  Ewald energy   TEWEN  =     14973.24208224
  -Hartree energ DENC   =    -16967.89067819
  -exchange      EXHF   =         0.00000000
  -V(xc)+E(xc)   XCENC  =        43.12938239
  PAW double counting   =      6276.10906633    -6179.08779152
  entropy T*S    EENTRO =        -0.00000004
  eigenvalues    EBANDS =      -352.63163706
  atomic energy  EATOM  =      2112.48864025
  Solvation  Ediel_sol  =         0.00000000
  ---------------------------------------------------
  free energy    TOTEN  =       -64.36079166 eV

  energy without entropy =      -64.36079162  energy(sigma->0) =      -64.36079164


--------------------------------------------------------------------------------------------------------




--------------------------------------- Iteration      1(  17)  ---------------------------------------


    POTLOK:  cpu time    0.0128: real time    0.0144
    SETDIJ:  cpu time    0.0646: real time    0.0646
     EDDAV:  cpu time    0.4558: real time    0.4564
       DOS:  cpu time    0.0005: real time    0.0005
    CHARGE:  cpu time    0.0266: real time    0.0266
    MIXING:  cpu time    0.0010: real time    0.0010
    --------------------------------------------
      LOOP:  cpu time    0.5613: real time    0.5635

 eigenvalue-minimisations  :   864
 total energy-change (2. order) :-0.2720760E-04  (-0.2266796E-06)
 number of electron      59.9999940 magnetization 
 augmentation part       -6.4453775 magnetization 

 Broyden mixing:
  rms(total) = 0.19501E-02    rms(broyden)= 0.19501E-02
  rms(prec ) = 0.19563E-02
  weight for this iteration     100.00

 eigenvalues of (default mixing * dielectric matrix)
  average eigenvalue GAMMA=   1.8983
  6.3987  2.6383  2.3919  2.3919  1.4390  1.4390  1.1129  1.1129  0.9085  0.9085
  1.0191  1.0191

 Free energy of the ion-electron system (eV)
  ---------------------------------------------------
  alpha Z        PSCENC =        30.28014394
  Ewald energy   TEWEN  =     14973.24208224
  -Hartree energ DENC   =    -16967.99142381
  -exchange      EXHF   =         0.00000000
  -V(xc)+E(xc)   XCENC  =        43.12978740
  PAW double counting   =      6277.60157365    -6180.58032965
  entropy T*S    EENTRO =        -0.00000004
  eigenvalues    EBANDS =      -352.53129285
  atomic energy  EATOM  =      2112.48864025
  Solvation  Ediel_sol  =         0.00000000
  ---------------------------------------------------
  free energy    TOTEN  =       -64.36081887 eV

  energy without entropy =      -64.36081883  energy(sigma->0) =      -64.36081885


--------------------------------------------------------------------------------------------------------




--------------------------------------- Iteration      1(  18)  ---------------------------------------


    POTLOK:  cpu time    0.0129: real time    0.0145
    SETDIJ:  cpu time    0.0644: real time    0.0646
     EDDAV:  cpu time    0.4244: real time    0.4250
       DOS:  cpu time    0.0005: real time    0.0005
    CHARGE:  cpu time    0.0267: real time    0.0267
    MIXING:  cpu time    0.0010: real time    0.0010
    --------------------------------------------
      LOOP:  cpu time    0.5298: real time    0.5322

 eigenvalue-minimisations  :   768
 total energy-change (2. order) :-0.1354243E-04  (-0.6439065E-07)
 number of electron      59.9999940 magnetization 
 augmentation part       -6.4453907 magnetization 

 Broyden mixing:
  rms(total) = 0.12946E-02    rms(broyden)= 0.12946E-02
  rms(prec ) = 0.13001E-02
  weight for this iteration     100.00

 eigenvalues of (default mixing * dielectric matrix)
  average eigenvalue GAMMA=   2.0828
  7.1752  3.3866  2.6240  2.3046  1.9838  1.9838  1.5324  1.5324  0.9000  0.9000
  1.0304  0.8613  0.8613

 Free energy of the ion-electron system (eV)
  ---------------------------------------------------
  alpha Z        PSCENC =        30.28014394
  Ewald energy   TEWEN  =     14973.24208224
  -Hartree energ DENC   =    -16968.01334738
  -exchange      EXHF   =         0.00000000
  -V(xc)+E(xc)   XCENC  =        43.12993506
  PAW double counting   =      6278.87430081    -6181.85296348
  entropy T*S    EENTRO =        -0.00000004
  eigenvalues    EBANDS =      -352.50962381
  atomic energy  EATOM  =      2112.48864025
  Solvation  Ediel_sol  =         0.00000000
  ---------------------------------------------------
  free energy    TOTEN  =       -64.36083241 eV

  energy without entropy =      -64.36083237  energy(sigma->0) =      -64.36083239


--------------------------------------------------------------------------------------------------------




--------------------------------------- Iteration      1(  19)  ---------------------------------------


    POTLOK:  cpu time    0.0140: real time    0.0142
    SETDIJ:  cpu time    0.0646: real time    0.0646
     EDDAV:  cpu time    0.4424: real time    0.4433
       DOS:  cpu time    0.0005: real time    0.0005
    CHARGE:  cpu time    0.0270: real time    0.0270
    MIXING:  cpu time    0.0011: real time    0.0011
    --------------------------------------------
      LOOP:  cpu time    0.5495: real time    0.5506

 eigenvalue-minimisations  :   840
 total energy-change (2. order) :-0.4713718E-04  (-0.2049692E-06)
 number of electron      59.9999940 magnetization 
 augmentation part       -6.4454103 magnetization 

 Broyden mixing:
  rms(total) = 0.29824E-03    rms(broyden)= 0.29824E-03
  rms(prec ) = 0.30415E-03
  weight for this iteration     100.00

 eigenvalues of (default mixing * dielectric matrix)
  average eigenvalue GAMMA=   2.0052
  7.6251  3.4233  2.5787  1.7037  1.7037  1.9122  1.9122  1.2726  1.2726  0.9501
  0.9501  0.9741  0.9741  0.8202

 Free energy of the ion-electron system (eV)
  ---------------------------------------------------
  alpha Z        PSCENC =        30.28014394
  Ewald energy   TEWEN  =     14973.24208224
  -Hartree energ DENC   =    -16968.07535935
  -exchange      EXHF   =         0.00000000
  -V(xc)+E(xc)   XCENC  =        43.13010461
  PAW double counting   =      6281.75813676    -6184.73685080
  entropy T*S    EENTRO =        -0.00000004
  eigenvalues    EBANDS =      -352.44777715
  atomic energy  EATOM  =      2112.48864025
  Solvation  Ediel_sol  =         0.00000000
  ---------------------------------------------------
  free energy    TOTEN  =       -64.36087954 eV

  energy without entropy =      -64.36087951  energy(sigma->0) =      -64.36087953


--------------------------------------------------------------------------------------------------------




--------------------------------------- Iteration      1(  20)  ---------------------------------------


    POTLOK:  cpu time    0.0128: real time    0.0143
    SETDIJ:  cpu time    0.0646: real time    0.0646
     EDDAV:  cpu time    0.4116: real time    0.4123
       DOS:  cpu time    0.0005: real time    0.0005
    --------------------------------------------
      LOOP:  cpu time    0.5725: real time    0.5746

 eigenvalue-minimisations  :   760
 total energy-change (2. order) :-0.4732115E-05  (-0.4396489E-07)
 number of electron      59.9999940 magnetization 
 augmentation part       -6.4454103 magnetization 

 Free energy of the ion-electron system (eV)
  ---------------------------------------------------
  alpha Z        PSCENC =        30.28014394
  Ewald energy   TEWEN  =     14973.24208224
  -Hartree energ DENC   =    -16968.08502554
  -exchange      EXHF   =         0.00000000
  -V(xc)+E(xc)   XCENC  =        43.13016395
  PAW double counting   =      6281.78036650    -6184.75914880
  entropy T*S    EENTRO =        -0.00000004
  eigenvalues    EBANDS =      -352.43810677
  atomic energy  EATOM  =      2112.48864025
  Solvation  Ediel_sol  =         0.00000000
  ---------------------------------------------------
  free energy    TOTEN  =       -64.36088428 eV

  energy without entropy =      -64.36088424  energy(sigma->0) =      -64.36088426


--------------------------------------------------------------------------------------------------------




 the core state eigenenergies are
   1-  1s  -2078.3901  2s   -168.4212  2p   -118.9068
   2-  1s  -2078.3901  2s   -168.4212  2p   -118.9068
   3-  1s  -2078.4484  2s   -168.4737  2p   -118.9598
   4-  1s  -2078.4484  2s   -168.4737  2p   -118.9598
   5-  1s  -2078.4825  2s   -168.5076  2p   -118.9937
   6-  1s  -2078.4825  2s   -168.5076  2p   -118.9937
   7-  1s  -2078.4825  2s   -168.5076  2p   -118.9937
   8-  1s  -2078.4825  2s   -168.5076  2p   -118.9937
   9-  1s  -2078.4484  2s   -168.4737  2p   -118.9598
  10-  1s  -2078.4484  2s   -168.4737  2p   -118.9598
  11-  1s  -2078.3901  2s   -168.4212  2p   -118.9068
  12-  1s  -2078.3901  2s   -168.4212  2p   -118.9068
 
 E-fermi :   0.9377     XC(G=0):  -5.1106     alpha+bet : -5.5572


 k-point     1 :       0.0000    0.0000    0.0000
  band No.  band energies     occupation 
      1     -14.8557      2.00000
      2     -14.7347      2.00000
      3     -14.6663      2.00000
      4     -12.3753      2.00000
      5     -12.1287      2.00000
      6     -11.9493      2.00000
      7      -8.6076      2.00000
      8      -8.5228      2.00000
      9      -8.4928      2.00000
     10      -5.9259      2.00000
     11      -5.5463      2.00000
     12      -5.1282      2.00000
     13      -4.5075      2.00000
     14      -4.5057      2.00000
     15      -4.1894      2.00000
     16      -4.1436      2.00000
     17      -3.9964      2.00000
     18      -3.9239      2.00000
     19      -3.3952      2.00000
     20      -3.2936      2.00000
     21      -3.2441      2.00000
     22      -1.8812      2.00000
     23      -1.7383      2.00000
     24      -1.6259      2.00000
     25      -1.5905      2.00000
     26      -1.5059      2.00000
     27      -1.1094      2.00000
     28      -0.2517      2.00000
     29       0.3526      2.00000
     30       0.9075      1.99998
     31       0.9679      0.00002
     32       1.4958      0.00000
     33       1.5216      0.00000
     34       1.6953      0.00000
     35       1.7044      0.00000
     36       1.8599      0.00000
     37       2.7289      0.00000
     38       2.9002      0.00000
     39       2.9705      0.00000
     40       3.6972      0.00000

 k-point     2 :       0.1429    0.0000    0.0000
  band No.  band energies     occupation 
      1     -14.6178      2.00000
      2     -14.4976      2.00000
      3     -14.4301      2.00000
      4     -12.1278      2.00000
      5     -11.8822      2.00000
      6     -11.7037      2.00000
      7      -8.8089      2.00000
      8      -8.7417      2.00000
      9      -8.7303      2.00000
     10      -5.7241      2.00000
     11      -5.3500      2.00000
     12      -4.9483      2.00000
     13      -4.8019      2.00000
     14      -4.6802      2.00000
     15      -4.6081      2.00000
     16      -4.2947      2.00000
     17      -4.2498      2.00000
     18      -4.1611      2.00000
     19      -4.1582      2.00000
     20      -3.9451      2.00000
     21      -3.8000      2.00000
     22      -2.5080      2.00000
     23      -2.4103      2.00000
     24      -2.2968      2.00000
     25      -1.7731      2.00000
     26      -1.5057      2.00000
     27      -0.9981      2.00000
     28      -0.1995      2.00000
     29       0.2521      2.00000
     30       0.5827      2.00000
     31       1.1790      0.00000
     32       1.6401      0.00000
     33       1.8561      0.00000
     34       2.5647      0.00000
     35       2.7560      0.00000
     36       2.8175      0.00000
     37       3.2537      0.00000
     38       3.3938      0.00000
     39       3.5089      0.00000
     40       4.1445      0.00000

 k-point     3 :       0.2857    0.0000    0.0000
  band No.  band energies     occupation 
      1     -13.9130      2.00000
      2     -13.7957      2.00000
      3     -13.7313      2.00000
      4     -11.3898      2.00000
      5     -11.1475      2.00000
      6     -10.9716      2.00000
      7      -9.7541      2.00000
      8      -9.6859      2.00000
      9      -9.6737      2.00000
     10      -6.5366      2.00000
     11      -6.3624      2.00000
     12      -6.2454      2.00000
     13      -5.1651      2.00000
     14      -4.9282      2.00000
     15      -4.8765      2.00000
     16      -4.8627      2.00000
     17      -4.8172      2.00000
     18      -4.4830      2.00000
     19      -3.6937      2.00000
     20      -3.3930      2.00000
     21      -3.2602      2.00000
     22      -2.8053      2.00000
     23      -2.5100      2.00000
     24      -2.2508      2.00000
     25      -1.7001      2.00000
     26      -1.4197      2.00000
     27      -1.0153      2.00000
     28      -0.5215      2.00000
     29      -0.4240      2.00000
     30      -0.4162      2.00000
     31       1.1515      0.00000
     32       1.2491      0.00000
     33       1.5402      0.00000
     34       1.8507      0.00000
     35       2.4589      0.00000
     36       2.6685      0.00000
     37       2.8187      0.00000
     38       3.1401      0.00000
     39       3.1823      0.00000
     40       3.2187      0.00000

 k-point     4 :       0.4286    0.0000    0.0000
  band No.  band energies     occupation 
      1     -12.7753      2.00000
      2     -12.6642      2.00000
      3     -12.6064      2.00000
      4     -11.2972      2.00000
      5     -11.1996      2.00000
      6     -11.1561      2.00000
      7     -10.1766      2.00000
      8      -9.9412      2.00000
      9      -9.7707      2.00000
     10      -8.5246      2.00000
     11      -8.3042      2.00000
     12      -8.1461      2.00000
     13      -4.6428      2.00000
     14      -4.5642      2.00000
     15      -4.5639      2.00000
     16      -4.5342      2.00000
     17      -4.2996      2.00000
     18      -4.1514      2.00000
     19      -2.8553      2.00000
     20      -2.6882      2.00000
     21      -2.6078      2.00000
     22      -2.4424      2.00000
     23      -2.2484      2.00000
     24      -2.1616      2.00000
     25      -2.0450      2.00000
     26      -1.7824      2.00000
     27      -1.6824      2.00000
     28      -1.5283      2.00000
     29      -1.4288      2.00000
     30      -1.2026      2.00000
     31       1.4717      0.00000
     32       1.4894      0.00000
     33       1.6467      0.00000
     34       1.7480      0.00000
     35       1.8361      0.00000
     36       1.8462      0.00000
     37       1.8643      0.00000
     38       2.0530      0.00000
     39       2.1340      0.00000
     40       2.7754      0.00000

 k-point     5 :       0.0000    0.0000    0.2000
  band No.  band energies     occupation 
      1     -14.6293      2.00000
      2     -14.5127      2.00000
      3     -14.4490      2.00000
      4     -12.5041      2.00000
      5     -12.3336      2.00000
      6     -12.2379      2.00000
      7      -8.9151      2.00000
      8      -8.8043      2.00000
      9      -8.7315      2.00000
     10      -6.5035      2.00000
     11      -6.2816      2.00000
     12      -6.2157      2.00000
     13      -4.5595      2.00000
     14      -4.2217      2.00000
     15      -3.6549      2.00000
     16      -3.4659      2.00000
     17      -3.2155      2.00000
     18      -3.1191      2.00000
     19      -3.0854      2.00000
     20      -3.0833      2.00000
     21      -3.0752      2.00000
     22      -1.8146      2.00000
     23      -1.6977      2.00000
     24      -1.6444      2.00000
     25      -1.3701      2.00000
     26      -0.7439      2.00000
     27      -0.6495      2.00000
     28      -0.5718      2.00000
     29      -0.3044      2.00000
     30      -0.1246      2.00000
     31       1.5738      0.00000
     32       1.9143      0.00000
     33       2.0047      0.00000
     34       2.0693      0.00000
     35       2.3819      0.00000
     36       2.3917      0.00000
     37       2.4728      0.00000
     38       2.4753      0.00000
     39       2.8685      0.00000
     40       3.4068      0.00000

 k-point     6 :       0.1429    0.0000    0.2000
  band No.  band energies     occupation 
      1     -14.3935      2.00000
      2     -14.2778      2.00000
      3     -14.2150      2.00000
      4     -12.2667      2.00000
      5     -12.0992      2.00000
      6     -12.0066      2.00000
      7      -8.9780      2.00000
      8      -8.8665      2.00000
      9      -8.7959      2.00000
     10      -6.4222      2.00000
     11      -6.2248      2.00000
     12      -6.1452      2.00000
     13      -4.7730      2.00000
     14      -4.6969      2.00000
     15      -4.4914      2.00000
     16      -4.4895      2.00000
     17      -4.1216      2.00000
     18      -3.6815      2.00000
     19      -3.0007      2.00000
     20      -2.9547      2.00000
     21      -2.8004      2.00000
     22      -2.7769      2.00000
     23      -2.5479      2.00000
     24      -2.5427      2.00000
     25      -1.2289      2.00000
     26      -0.8468      2.00000
     27      -0.7436      2.00000
     28      -0.6854      2.00000
     29      -0.4417      2.00000
     30      -0.1516      2.00000
     31       1.7947      0.00000
     32       2.1379      0.00000
     33       2.4660      0.00000
     34       2.7053      0.00000
     35       2.8551      0.00000
     36       3.0568      0.00000
     37       3.4222      0.00000
     38       3.4703      0.00000
     39       3.4912      0.00000
     40       4.1149      0.00000

 k-point     7 :       0.2857    0.0000    0.2000
  band No.  band energies     occupation 
      1     -13.6975      2.00000
      2     -13.5848      2.00000
      3     -13.5253      2.00000
      4     -11.5870      2.00000
      5     -11.4362      2.00000
      6     -11.3605      2.00000
      7      -9.5617      2.00000
      8      -9.4335      2.00000
      9      -9.3515      2.00000
     10      -6.8577      2.00000
     11      -6.7772      2.00000
     12      -6.7615      2.00000
     13      -5.6705      2.00000
     14      -5.5269      2.00000
     15      -5.4204      2.00000
     16      -4.9093      2.00000
     17      -4.6657      2.00000
     18      -4.6212      2.00000
     19      -3.2252      2.00000
     20      -3.1635      2.00000
     21      -2.9847      2.00000
     22      -2.5153      2.00000
     23      -2.4063      2.00000
     24      -2.3800      2.00000
     25      -1.8437      2.00000
     26      -1.6063      2.00000
     27      -1.2087      2.00000
     28      -0.9573      2.00000
     29      -0.6054      2.00000
     30      -0.5079      2.00000
     31       1.8633      0.00000
     32       2.0049      0.00000
     33       2.0272      0.00000
     34       2.4264      0.00000
     35       2.4780      0.00000
     36       2.5616      0.00000
     37       2.7400      0.00000
     38       2.9011      0.00000
     39       3.2170      0.00000
     40       3.9917      0.00000

 k-point     8 :       0.4286    0.0000    0.2000
  band No.  band energies     occupation 
      1     -12.5892      2.00000
      2     -12.4839      2.00000
      3     -12.4322      2.00000
      4     -11.3006      2.00000
      5     -11.2147      2.00000
      6     -11.1851      2.00000
      7     -10.0531      2.00000
      8      -9.8546      2.00000
      9      -9.7221      2.00000
     10      -8.6003      2.00000
     11      -8.4359      2.00000
     12      -8.3381      2.00000
     13      -5.3023      2.00000
     14      -5.1599      2.00000
     15      -5.0443      2.00000
     16      -4.6107      2.00000
     17      -4.4198      2.00000
     18      -4.3409      2.00000
     19      -3.5508      2.00000
     20      -3.3687      2.00000
     21      -3.2497      2.00000
     22      -2.9400      2.00000
     23      -2.7894      2.00000
     24      -2.7763      2.00000
     25      -2.0167      2.00000
     26      -1.6640      2.00000
     27      -1.2093      2.00000
     28      -1.1335      2.00000
     29      -0.9019      2.00000
     30      -0.8180      2.00000
     31       1.4670      0.00000
     32       1.6852      0.00000
     33       1.7131      0.00000
     34       2.2466      0.00000
     35       2.4522      0.00000
     36       2.4612      0.00000
     37       2.9419      0.00000
     38       2.9711      0.00000
     39       3.1301      0.00000
     40       3.2861      0.00000

 k-point     9 :       0.0000    0.0000    0.4000
  band No.  band energies     occupation 
      1     -13.9859      2.00000
      2     -13.8872      2.00000
      3     -13.8432      2.00000
      4     -13.0873      2.00000
      5     -13.0264      2.00000
      6     -13.0243      2.00000
      7      -8.9309      2.00000
      8      -8.6563      2.00000
      9      -8.4194      2.00000
     10      -8.0127      2.00000
     11      -7.6870      2.00000
     12      -7.4140      2.00000
     13      -4.1045      2.00000
     14      -3.3810      2.00000
     15      -2.9590      2.00000
     16      -2.7289      2.00000
     17      -2.6515      2.00000
     18      -2.6281      2.00000
     19      -2.5780      2.00000
     20      -2.2265      2.00000
     21      -2.1413      2.00000
     22      -2.0804      2.00000
     23      -2.0801      2.00000
     24      -1.7925      2.00000
     25      -1.3325      2.00000
     26      -1.2915      2.00000
     27      -1.2491      2.00000
     28      -0.0160      2.00000
     29       0.0960      2.00000
     30       0.1429      2.00000
     31       1.9422      0.00000
     32       2.0547      0.00000
     33       2.0600      0.00000
     34       2.1237      0.00000
     35       2.3052      0.00000
     36       2.3284      0.00000
     37       3.1957      0.00000
     38       3.2104      0.00000
     39       3.3547      0.00000
     40       3.4414      0.00000

 k-point    10 :       0.1429    0.0000    0.4000
  band No.  band energies     occupation 
      1     -13.7564      2.00000
      2     -13.6584      2.00000
      3     -13.6151      2.00000
      4     -12.8637      2.00000
      5     -12.8027      2.00000
      6     -12.8009      2.00000
      7      -8.8439      2.00000
      8      -8.5817      2.00000
      9      -8.3621      2.00000
     10      -7.8933      2.00000
     11      -7.5900      2.00000
     12      -7.3427      2.00000
     13      -4.3789      2.00000
     14      -4.2790      2.00000
     15      -4.1591      2.00000
     16      -3.9202      2.00000
     17      -3.6653      2.00000
     18      -3.6168      2.00000
     19      -3.5113      2.00000
     20      -3.1716      2.00000
     21      -2.7597      2.00000
     22      -2.4665      2.00000
     23      -2.0855      2.00000
     24      -1.5579      2.00000
     25      -0.9863      2.00000
     26      -0.9212      2.00000
     27      -0.8527      2.00000
     28      -0.5565      2.00000
     29      -0.4036      2.00000
     30      -0.2382      2.00000
     31       2.6657      0.00000
     32       2.7164      0.00000
     33       2.8763      0.00000
     34       3.0333      0.00000
     35       3.1672      0.00000
     36       3.2795      0.00000
     37       3.3525      0.00000
     38       3.4723      0.00000
     39       3.7361      0.00000
     40       3.8206      0.00000

 k-point    11 :       0.2857    0.0000    0.4000
  band No.  band energies     occupation 
      1     -13.0880      2.00000
      2     -12.9929      2.00000
      3     -12.9525      2.00000
      4     -12.2322      2.00000
      5     -12.1708      2.00000
      6     -12.1700      2.00000
      7      -8.9335      2.00000
      8      -8.7347      2.00000
      9      -8.5949      2.00000
     10      -7.9062      2.00000
     11      -7.7347      2.00000
     12      -7.6348      2.00000
     13      -5.8573      2.00000
     14      -5.6562      2.00000
     15      -5.4933      2.00000
     16      -5.2989      2.00000
     17      -5.1088      2.00000
     18      -4.9648      2.00000
     19      -3.5765      2.00000
     20      -3.0892      2.00000
     21      -2.7531      2.00000
     22      -2.7041      2.00000
     23      -2.3639      2.00000
     24      -2.1154      2.00000
     25      -1.9622      2.00000
     26      -1.5728      2.00000
     27      -1.4479      2.00000
     28      -1.1190      2.00000
     29      -0.9327      2.00000
     30      -0.6057      2.00000
     31       2.1790      0.00000
     32       2.7280      0.00000
     33       2.7421      0.00000
     34       3.2786      0.00000
     35       3.3432      0.00000
     36       3.4351      0.00000
     37       3.8674      0.00000
     38       3.9597      0.00000
     39       4.1674      0.00000
     40       4.2042      0.00000

 k-point    12 :       0.4286    0.0000    0.4000
  band No.  band energies     occupation 
      1     -12.0924      2.00000
      2     -12.0078      2.00000
      3     -11.9783      2.00000
      4     -11.5269      2.00000
      5     -11.4696      2.00000
      6     -11.4691      2.00000
      7      -9.6219      2.00000
      8      -9.4966      2.00000
      9      -9.4350      2.00000
     10      -8.9627      2.00000
     11      -8.8970      2.00000
     12      -8.8967      2.00000
     13      -5.6726      2.00000
     14      -5.4170      2.00000
     15      -5.1875      2.00000
     16      -5.0975      2.00000
     17      -4.8065      2.00000
     18      -4.6632      2.00000
     19      -4.3648      2.00000
     20      -4.1980      2.00000
     21      -3.9745      2.00000
     22      -3.8873      2.00000
     23      -3.5848      2.00000
     24      -3.3469      2.00000
     25      -1.8571      2.00000
     26      -1.3738      2.00000
     27      -1.1857      2.00000
     28      -1.0004      2.00000
     29      -0.9598      2.00000
     30      -0.9300      2.00000
     31       2.3498      0.00000
     32       2.5923      0.00000
     33       2.9210      0.00000
     34       2.9878      0.00000
     35       3.1613      0.00000
     36       3.4272      0.00000
     37       3.5670      0.00000
     38       3.7020      0.00000
     39       3.8313      0.00000
     40       4.5852      0.00000


--------------------------------------------------------------------------------------------------------


 soft charge-density along one line, spin component           1
         0         1         2         3         4         5         6         7         8         9
 total charge-density along one line
 
 pseudopotential strength for first ion, spin component:           1
 29.685  37.031   0.035  -0.033   0.000   0.054  -0.052   0.000
 37.031  46.199   0.043  -0.041  -0.000   0.068  -0.064  -0.000
  0.035   0.043   6.554   0.006  -0.000  10.135   0.009  -0.000
 -0.033  -0.041   0.006   6.557   0.000   0.009  10.141   0.000
  0.000  -0.000  -0.000   0.000   6.562  -0.000   0.000  10.148
  0.054   0.068  10.135   0.009  -0.000  15.692   0.014  -0.000
 -0.052  -0.064   0.009  10.141   0.000   0.014  15.701   0.000
  0.000  -0.000  -0.000   0.000  10.148  -0.000   0.000  15.711
 total augmentation occupancy for first ion, spin component:           1
  8.298  -4.729   1.851  -1.945  -0.000  -0.591   0.649   0.000
 -4.729   3.434  -1.590   1.651   0.000   0.437  -0.476   0.000
  1.851  -1.590   3.129   0.195   0.000  -0.824  -0.162   0.000
 -1.945   1.651   0.195   3.270   0.000  -0.161  -0.922   0.000
  0.000   0.000   0.000   0.000   3.397   0.000   0.000  -1.026
 -0.591   0.437  -0.824  -0.161   0.000   0.259   0.069   0.000
  0.649  -0.476  -0.162  -0.922   0.000   0.069   0.298  -0.000
  0.000   0.000   0.000   0.000  -1.026   0.000   0.000   0.339


------------------------ aborting loop because EDIFF is reached ----------------------------------------


 


 total charge     
 
# of ion       s       p       d       tot
------------------------------------------
    1        1.082   1.376   0.000   2.458
    2        1.082   1.376   0.000   2.458
    3        1.084   1.372   0.000   2.455
    4        1.084   1.372   0.000   2.455
    5        1.084   1.371   0.000   2.455
    6        1.084   1.371   0.000   2.455
    7        1.084   1.371   0.000   2.455
    8        1.084   1.371   0.000   2.455
    9        1.084   1.372   0.000   2.455
   10        1.084   1.372   0.000   2.455
   11        1.082   1.376   0.000   2.458
   12        1.082   1.376   0.000   2.458
--------------------------------------------------
tot         12.998  16.474   0.000  29.472
 
    CHARGE:  cpu time    0.0272: real time    0.0272
    FORLOC:  cpu time    0.0012: real time    0.0012
    FORNL :  cpu time    0.1050: real time    0.1050
    STRESS:  cpu time    0.1621: real time    0.1621
    FORCOR:  cpu time    0.0132: real time    0.0132
    FORHAR:  cpu time    0.0040: real time    0.0040
    MIXING:  cpu time    0.0010: real time    0.0010
    OFIELD:  cpu time    0.0000: real time    0.0000

  DFT-D2 method for vdW energy calculation
  -------------------------------------------------------------------

  Parameters of vdW forcefield:
         C6(Jnm^6/mol)     R0(A)
   -----------------------------
   P        7.840          1.705

  IVDW =  10
  VDW_RADIUS =    50.000 A
  VDW_S6 =     0.750
  VDW_SR =     1.000
  VDW_D =    20.000
  LVDW_EWALD = F

  Number of pair interactions contributing to vdW energy:   88382
  Edisp (eV):   -2.17394
    FORVDW:  cpu time    0.0530: real time    0.0922

  FORCE on cell =-STRESS in cart. coord.  units (eV):
  Direction    XX          YY          ZZ          XY          YZ          ZX
  --------------------------------------------------------------------------------------
  Alpha Z    30.28014    30.28014    30.28014
  Ewald   16591.01473-18044.25022 16426.47569    -0.00000     0.00000     0.00000
  Hartree 16898.05891-16770.82718 16840.85395    -0.00000    -0.00000    -0.00000
  E(xc)    -201.41309  -202.67866  -201.62086     0.00000     0.00000     0.00000
  Local  -34440.65206 33820.33140-34239.87524    -0.00000     0.00000     0.00000
  n-local   679.57183   677.99129   674.73894    -0.00000    -0.00000     2.01215
  augment  -126.39661  -130.45218  -128.86134    -0.00000    -0.00000    -0.00000
  Kinetic   569.60536   620.19777   600.28965    -0.00000    -0.00000     8.08383
  Fock        0.00000     0.00000     0.00000     0.00000     0.00000     0.00000
  vdW        -0.23282    -1.41063    -0.99576    -0.00000    -0.00000     0.00000
  -------------------------------------------------------------------------------------
  Total      -0.16361    -0.81828     1.28517     0.00000     0.00000     0.00000
  in kB      -0.54978    -2.74968     4.31854     0.00000     0.00000     0.00000
  external pressure =        0.34 kB  Pullay stress =        0.00 kB


 VOLUME and BASIS-vectors are now :
 -----------------------------------------------------------------------------
  energy-cutoff  :      400.00
  volume of cell :      476.80
      direct lattice vectors                 reciprocal lattice vectors
     3.342886000  0.000000000  0.000000000     0.299142717  0.000000000  0.000000000
     0.000000000 32.602409000  0.000000000     0.000000000  0.030672580  0.000000000
     0.000000000  0.000000000  4.374831000     0.000000000  0.000000000  0.228580258

  length of vectors
     3.342886000 32.602409000  4.374831000     0.299142717  0.030672580  0.228580258


 FORCES acting on ions
    electron-ion (+dipol)            ewald-force                    non-local-force                 convergence-correction
 -----------------------------------------------------------------------------------------------
   -.189E-14 0.823E+03 -.291E+02   0.114E-14 -.828E+03 0.342E+02   0.278E-16 0.578E+01 -.518E+01   0.200E-14 0.228E-02 0.234E-03
   0.273E-14 0.823E+03 0.291E+02   -.458E-14 -.828E+03 -.342E+02   0.000E+00 0.578E+01 0.518E+01   0.176E-14 0.228E-02 -.234E-03
   -.175E-14 0.459E+03 0.260E+02   0.181E-14 -.453E+03 -.313E+02   0.000E+00 -.547E+01 0.523E+01   0.676E-15 0.112E-02 0.106E-03
   -.259E-15 0.459E+03 -.260E+02   -.613E-14 -.453E+03 0.313E+02   0.000E+00 -.547E+01 -.523E+01   0.655E-15 0.112E-02 -.106E-03
   0.147E-14 0.183E+03 -.262E+02   0.754E-15 -.189E+03 0.314E+02   0.278E-16 0.541E+01 -.523E+01   -.678E-15 -.128E-02 0.318E-03
   0.240E-15 0.183E+03 0.262E+02   -.638E-14 -.189E+03 -.314E+02   0.000E+00 0.541E+01 0.523E+01   0.215E-14 -.128E-02 -.318E-03
   0.704E-15 -.183E+03 0.262E+02   0.197E-14 0.189E+03 -.314E+02   -.278E-16 -.541E+01 0.523E+01   -.286E-14 0.128E-02 -.318E-03
   -.121E-14 -.183E+03 -.262E+02   -.498E-14 0.189E+03 0.314E+02   0.000E+00 -.541E+01 -.523E+01   0.267E-14 0.128E-02 0.318E-03
   0.110E-14 -.459E+03 -.260E+02   0.911E-15 0.453E+03 0.313E+02   0.000E+00 0.547E+01 -.523E+01   -.104E-14 -.112E-02 -.106E-03
   0.127E-14 -.459E+03 0.260E+02   -.523E-14 0.453E+03 -.313E+02   0.000E+00 0.547E+01 0.523E+01   -.173E-14 -.112E-02 0.106E-03
   -.122E-14 -.823E+03 0.291E+02   0.158E-14 0.828E+03 -.342E+02   -.278E-16 -.578E+01 0.518E+01   0.828E-15 -.228E-02 -.234E-03
   0.144E-14 -.823E+03 -.291E+02   -.679E-14 0.828E+03 0.342E+02   0.000E+00 -.578E+01 -.518E+01   -.393E-14 -.228E-02 0.234E-03
 -----------------------------------------------------------------------------------------------
   0.263E-14 0.386E-11 0.424E-10   -.259E-13 0.000E+00 -.711E-14   0.000E+00 0.000E+00 0.000E+00   0.507E-15 -.249E-11 -.199E-13
 
 
 POSITION                                       TOTAL-FORCE (eV/Angst)
 -----------------------------------------------------------------------------------
      0.00000     10.00001      4.02014        -0.000000      0.073826     -0.050179
      1.67144     10.00001      2.54211         0.000000      0.073826      0.050179
      0.00000     12.14332      0.35469         0.000000     -0.071519     -0.009160
      1.67144     12.14332      1.83272         0.000000     -0.071519      0.009160
      1.67144     15.22953      4.02014         0.000000      0.034098     -0.007721
      0.00000     15.22953      2.54211        -0.000000      0.034098      0.007721
      1.67144     17.37288      0.35469        -0.000000     -0.034098      0.007721
      0.00000     17.37288      1.83272         0.000000     -0.034098     -0.007721
      0.00000     20.45909      4.02014         0.000000      0.071519      0.009160
      1.67144     20.45909      2.54211         0.000000      0.071519     -0.009160
      0.00000     22.60240      0.35469         0.000000     -0.073826      0.050179
      1.67144     22.60240      1.83272         0.000000     -0.073826     -0.050179
 -----------------------------------------------------------------------------------
    total drift:                               -0.000000      0.000000      0.000000


--------------------------------------------------------------------------------------------------------



  FREE ENERGIE OF THE ION-ELECTRON SYSTEM (eV)
  ---------------------------------------------------
  free  energy   TOTEN  =       -66.53482380 eV

  energy  without entropy=      -66.53482376  energy(sigma->0) =      -66.53482378
 


--------------------------------------------------------------------------------------------------------


    POTLOK:  cpu time    0.0778: real time    0.0778


--------------------------------------------------------------------------------------------------------


 writing wavefunctions
     LOOP+:  cpu time   13.8609: real time   13.9621
    4ORBIT:  cpu time    0.0000: real time    0.0000
 


 total charge     
 
# of ion       s       p       d       tot
------------------------------------------
    1        1.082   1.376   0.000   2.458
    2        1.082   1.376   0.000   2.458
    3        1.084   1.372   0.000   2.455
    4        1.084   1.372   0.000   2.455
    5        1.084   1.371   0.000   2.455
    6        1.084   1.371   0.000   2.455
    7        1.084   1.371   0.000   2.455
    8        1.084   1.371   0.000   2.455
    9        1.084   1.372   0.000   2.455
   10        1.084   1.372   0.000   2.455
   11        1.082   1.376   0.000   2.458
   12        1.082   1.376   0.000   2.458
--------------------------------------------------
tot         12.998  16.474   0.000  29.472
 

 total amount of memory used by VASP MPI-rank0    35100. kBytes
=======================================================================

   base      :      30000. kBytes
   nonl-proj :       1067. kBytes
   fftplans  :        792. kBytes
   grid      :       1070. kBytes
   one-center:          6. kBytes
   wavefun   :       2165. kBytes
 
  
  
 General timing and accounting informations for this job:
 ========================================================
  
                  Total CPU time used (sec):       19.322
                            User time (sec):       17.281
                          System time (sec):        2.041
                         Elapsed time (sec):       19.980
  
                   Maximum memory used (kb):      106936.
                   Average memory used (kb):           0.
  
                          Minor page faults:        35749
                          Major page faults:            0
                 Voluntary context switches:         2171
