  12  12   1   0
  0.3973299E+02  0.3342886E-09  0.3260241E-08  0.4374831E-09  0.5000000E-15
  1.000000000000000E-004
  CAR 
 Generic Input                           
      5.67316621    -15.93893608 2000      0.63536516      1.00000000
    -15.939  0.0000E+00  0.0000E+00
    -15.928  0.0000E+00  0.0000E+00
    -15.917  0.0000E+00  0.0000E+00
    -15.907  0.0000E+00  0.0000E+00
    -15.896  0.0000E+00  0.0000E+00
    -15.885  0.0000E+00  0.0000E+00
    -15.874  0.0000E+00  0.0000E+00
    -15.863  0.0000E+00  0.0000E+00
    -15.852  0.0000E+00  0.0000E+00
    -15.842  0.0000E+00  0.0000E+00
    -15.831  0.0000E+00  0.0000E+00
    -15.820  0.0000E+00  0.0000E+00
    -15.809  0.0000E+00  0.0000E+00
    -15.798  0.0000E+00  0.0000E+00
    -15.788  0.0000E+00  0.0000E+00
    -15.777  0.0000E+00  0.0000E+00
    -15.766  0.0000E+00  0.0000E+00
    -15.755  0.0000E+00  0.0000E+00
    -15.744  0.0000E+00  0.0000E+00
    -15.734  0.0000E+00  0.0000E+00
    -15.723  0.0000E+00  0.0000E+00
    -15.712  0.0000E+00  0.0000E+00
    -15.701  0.0000E+00  0.0000E+00
    -15.690  0.0000E+00  0.0000E+00
    -15.679  0.0000E+00  0.0000E+00
    -15.669  0.0000E+00  0.0000E+00
    -15.658  0.0000E+00  0.0000E+00
    -15.647  0.0000E+00  0.0000E+00
    -15.636  0.0000E+00  0.0000E+00
    -15.625  0.0000E+00  0.0000E+00
    -15.615  0.0000E+00  0.0000E+00
    -15.604  0.0000E+00  0.0000E+00
    -15.593  0.0000E+00  0.0000E+00
    -15.582  0.0000E+00  0.0000E+00
    -15.571  0.0000E+00  0.0000E+00
    -15.561  0.0000E+00  0.0000E+00
    -15.550  0.0000E+00  0.0000E+00
    -15.539  0.0000E+00  0.0000E+00
    -15.528  0.0000E+00  0.0000E+00
    -15.517  0.0000E+00  0.0000E+00
    -15.506  0.0000E+00  0.0000E+00
    -15.496  0.0000E+00  0.0000E+00
    -15.485  0.0000E+00  0.0000E+00
    -15.474  0.0000E+00  0.0000E+00
    -15.463  0.0000E+00  0.0000E+00
    -15.452  0.0000E+00  0.0000E+00
    -15.442  0.0000E+00  0.0000E+00
    -15.431  0.0000E+00  0.0000E+00
    -15.420  0.0000E+00  0.0000E+00
    -15.409  0.0000E+00  0.0000E+00
    -15.398  0.0000E+00  0.0000E+00
    -15.388  0.0000E+00  0.0000E+00
    -15.377  0.0000E+00  0.0000E+00
    -15.366  0.0000E+00  0.0000E+00
    -15.355  0.0000E+00  0.0000E+00
    -15.344  0.0000E+00  0.0000E+00
    -15.333  0.0000E+00  0.0000E+00
    -15.323  0.0000E+00  0.0000E+00
    -15.312  0.0000E+00  0.0000E+00
    -15.301  0.0000E+00  0.0000E+00
    -15.290  0.0000E+00  0.0000E+00
    -15.279  0.0000E+00  0.0000E+00
    -15.269  0.0000E+00  0.0000E+00
    -15.258  0.0000E+00  0.0000E+00
    -15.247  0.0000E+00  0.0000E+00
    -15.236  0.0000E+00  0.0000E+00
    -15.225  0.0000E+00  0.0000E+00
    -15.215  0.0000E+00  0.0000E+00
    -15.204  0.0000E+00  0.0000E+00
    -15.193  0.0000E+00  0.0000E+00
    -15.182  0.0000E+00  0.0000E+00
    -15.171  0.0000E+00  0.0000E+00
    -15.161  0.0000E+00  0.0000E+00
    -15.150  0.0000E+00  0.0000E+00
    -15.139  0.0000E+00  0.0000E+00
    -15.128  0.0000E+00  0.0000E+00
    -15.117  0.0000E+00  0.0000E+00
    -15.106  0.0000E+00  0.0000E+00
    -15.096  0.0000E+00  0.0000E+00
    -15.085  0.0000E+00  0.0000E+00
    -15.074  0.0000E+00  0.0000E+00
    -15.063  0.0000E+00  0.0000E+00
    -15.052  0.0000E+00  0.0000E+00
    -15.042  0.0000E+00  0.0000E+00
    -15.031  0.0000E+00  0.0000E+00
    -15.020  0.0000E+00  0.0000E+00
    -15.009  0.2279E-12  0.2464E-14
    -14.998  0.7654E-08  0.8276E-10
    -14.988  0.2632E-04  0.2846E-06
    -14.977  0.9619E-02  0.1043E-03
    -14.966  0.4015E+00  0.4445E-02
    -14.955  0.2155E+01  0.2774E-01
    -14.944  0.1657E+01  0.4566E-01
    -14.933  0.1789E+00  0.4759E-01
    -14.923  0.2395E-02  0.4762E-01
    -14.912  0.3575E-05  0.4762E-01
    -14.901  0.5599E-09  0.4762E-01
    -14.890  0.8802E-14  0.4762E-01
    -14.879  0.0000E+00  0.4762E-01
    -14.869  0.0000E+00  0.4762E-01
    -14.858  0.1000E-11  0.4762E-01
    -14.847  0.2871E-07  0.4762E-01
    -14.836  0.8457E-04  0.4762E-01
    -14.825  0.2657E-01  0.4791E-01
    -14.815  0.9599E+00  0.5829E-01
    -14.804  0.4502E+01  0.1070E+00
    -14.793  0.3160E+01  0.1411E+00
    -14.782  0.1728E+01  0.1598E+00
    -14.771  0.2297E+01  0.1846E+00
    -14.760  0.5252E+00  0.1903E+00
    -14.750  0.1573E-01  0.1905E+00
    -14.739  0.1995E-01  0.1907E+00
    -14.728  0.8182E+00  0.1995E+00
    -14.717  0.4331E+01  0.2464E+00
    -14.706  0.3289E+01  0.2819E+00
    -14.696  0.5559E+00  0.2879E+00
    -14.685  0.1752E+01  0.3069E+00
    -14.674  0.2085E+01  0.3294E+00
    -14.663  0.3554E+00  0.3332E+00
    -14.652  0.9311E-02  0.3334E+00
    -14.642  0.1797E+00  0.3353E+00
    -14.631  0.2496E+01  0.3623E+00
    -14.620  0.4768E+01  0.4138E+00
    -14.609  0.1316E+01  0.4281E+00
    -14.598  0.4837E-01  0.4286E+00
    -14.588  0.9815E-01  0.4296E+00
    -14.577  0.2661E+01  0.4584E+00
    -14.566  0.9553E+01  0.5617E+00
    -14.555  0.5270E+01  0.6187E+00
    -14.544  0.3620E+01  0.6578E+00
    -14.533  0.6394E+01  0.7269E+00
    -14.523  0.5776E+01  0.7894E+00
    -14.512  0.1778E+01  0.8086E+00
    -14.501  0.8472E-01  0.8095E+00
    -14.490  0.4829E-03  0.8095E+00
    -14.479  0.2681E-04  0.8095E+00
    -14.469  0.1199E-01  0.8097E+00
    -14.458  0.6142E+00  0.8163E+00
    -14.447  0.3993E+01  0.8595E+00
    -14.436  0.3697E+01  0.8994E+00
    -14.425  0.4844E+00  0.9047E+00
    -14.415  0.1767E-01  0.9049E+00
    -14.404  0.7216E+00  0.9127E+00
    -14.393  0.6759E+01  0.9857E+00
    -14.382  0.1061E+02  0.1100E+01
    -14.371  0.6482E+01  0.1171E+01
    -14.360  0.1764E+01  0.1190E+01
    -14.350  0.8194E-01  0.1190E+01
    -14.339  0.4584E-03  0.1190E+01
    -14.328  0.9447E-05  0.1190E+01
    -14.317  0.6988E-02  0.1191E+01
    -14.306  0.5910E+00  0.1197E+01
    -14.296  0.6155E+01  0.1263E+01
    -14.285  0.8946E+01  0.1360E+01
    -14.274  0.1869E+01  0.1380E+01
    -14.263  0.5058E-01  0.1381E+01
    -14.252  0.1573E-03  0.1381E+01
    -14.242  0.5217E-07  0.1381E+01
    -14.231  0.5922E-06  0.1381E+01
    -14.220  0.7982E-03  0.1381E+01
    -14.209  0.1172E+00  0.1382E+01
    -14.198  0.2053E+01  0.1404E+01
    -14.187  0.4880E+01  0.1457E+01
    -14.177  0.1680E+01  0.1475E+01
    -14.166  0.1020E+00  0.1476E+01
    -14.155  0.1244E+01  0.1490E+01
    -14.144  0.8017E+01  0.1577E+01
    -14.133  0.7361E+01  0.1656E+01
    -14.123  0.9561E+00  0.1666E+01
    -14.112  0.1561E-01  0.1667E+01
    -14.101  0.1024E-01  0.1667E+01
    -14.090  0.5597E+00  0.1673E+01
    -14.079  0.3879E+01  0.1715E+01
    -14.069  0.3818E+01  0.1756E+01
    -14.058  0.5332E+00  0.1762E+01
    -14.047  0.9415E-02  0.1762E+01
    -14.036  0.1011E-01  0.1762E+01
    -14.025  0.5559E+00  0.1768E+01
    -14.014  0.3870E+01  0.1810E+01
    -14.004  0.3827E+01  0.1851E+01
    -13.993  0.5370E+00  0.1857E+01
    -13.982  0.4876E-01  0.1858E+01
    -13.971  0.1624E+01  0.1875E+01
    -13.960  0.8645E+01  0.1969E+01
    -13.950  0.6595E+01  0.2040E+01
    -13.939  0.7057E+00  0.2048E+01
    -13.928  0.9365E-02  0.2048E+01
    -13.917  0.1385E-04  0.2048E+01
    -13.906  0.5545E-05  0.2048E+01
    -13.896  0.4877E-02  0.2048E+01
    -13.885  0.4739E+00  0.2053E+01
    -13.874  0.5628E+01  0.2114E+01
    -13.863  0.9678E+01  0.2218E+01
    -13.852  0.7916E+01  0.2304E+01
    -13.842  0.1286E+02  0.2443E+01
    -13.831  0.6633E+01  0.2515E+01
    -13.820  0.1010E+01  0.2525E+01
    -13.809  0.2457E+01  0.2552E+01
    -13.798  0.4788E+01  0.2604E+01
    -13.787  0.1359E+01  0.2618E+01
    -13.777  0.5115E-01  0.2619E+01
    -13.766  0.4277E-01  0.2620E+01
    -13.755  0.1236E+01  0.2633E+01
    -13.744  0.4724E+01  0.2684E+01
    -13.733  0.2607E+01  0.2712E+01
    -13.723  0.1994E+00  0.2714E+01
    -13.712  0.1809E+00  0.2716E+01
    -13.701  0.3608E+01  0.2755E+01
    -13.690  0.9783E+01  0.2861E+01
    -13.679  0.3842E+01  0.2903E+01
    -13.669  0.2038E+00  0.2905E+01
    -13.658  0.1285E-02  0.2905E+01
    -13.647  0.8812E-06  0.2905E+01
    -13.636  0.2950E-05  0.2905E+01
    -13.625  0.3098E-02  0.2905E+01
    -13.614  0.3571E+00  0.2909E+01
    -13.604  0.4980E+01  0.2962E+01
    -13.593  0.9750E+01  0.3068E+01
    -13.582  0.6537E+01  0.3139E+01
    -13.571  0.9877E+01  0.3245E+01
    -13.560  0.3557E+01  0.3284E+01
    -13.550  0.1738E+00  0.3286E+01
    -13.539  0.1006E-02  0.3286E+01
    -13.528  0.6306E-06  0.3286E+01
    -13.517  0.4125E-10  0.3286E+01
    -13.506  0.1455E-07  0.3286E+01
    -13.496  0.5990E-04  0.3286E+01
    -13.485  0.2610E-01  0.3286E+01
    -13.474  0.1290E+01  0.3300E+01
    -13.463  0.8160E+01  0.3388E+01
    -13.452  0.8676E+01  0.3482E+01
    -13.441  0.5730E+01  0.3544E+01
    -13.431  0.2384E+01  0.3570E+01
    -13.420  0.1599E+00  0.3571E+01
    -13.409  0.2448E-02  0.3571E+01
    -13.398  0.1478E+00  0.3573E+01
    -13.387  0.2286E+01  0.3598E+01
    -13.377  0.4834E+01  0.3650E+01
    -13.366  0.1479E+01  0.3666E+01
    -13.355  0.6014E-01  0.3667E+01
    -13.344  0.2866E-03  0.3667E+01
    -13.333  0.1472E-06  0.3667E+01
    -13.323  0.4774E-06  0.3667E+01
    -13.312  0.8193E-03  0.3667E+01
    -13.301  0.1521E+00  0.3668E+01
    -13.290  0.3329E+01  0.3704E+01
    -13.279  0.9756E+01  0.3810E+01
    -13.269  0.4140E+01  0.3855E+01
    -13.258  0.2384E+00  0.3857E+01
    -13.247  0.3947E-02  0.3857E+01
    -13.236  0.2964E+00  0.3860E+01
    -13.225  0.4579E+01  0.3910E+01
    -13.214  0.9667E+01  0.4014E+01
    -13.204  0.2954E+01  0.4046E+01
    -13.193  0.2427E+00  0.4049E+01
    -13.182  0.3006E+01  0.4081E+01
    -13.171  0.1066E+02  0.4197E+01
    -13.160  0.1196E+02  0.4326E+01
    -13.150  0.8251E+01  0.4415E+01
    -13.139  0.1218E+01  0.4428E+01
    -13.128  0.2356E-01  0.4429E+01
    -13.117  0.5166E-04  0.4429E+01
    -13.106  0.1198E-07  0.4429E+01
    -13.096  0.3557E-09  0.4429E+01
    -13.085  0.2943E-05  0.4429E+01
    -13.074  0.2546E-02  0.4429E+01
    -13.063  0.2433E+00  0.4431E+01
    -13.052  0.2843E+01  0.4462E+01
    -13.041  0.4610E+01  0.4512E+01
    -13.031  0.1077E+01  0.4523E+01
    -13.020  0.3285E-01  0.4524E+01
    -13.009  0.1157E-03  0.4524E+01
    -12.998  0.4360E-07  0.4524E+01
    -12.987  0.1687E-11  0.4524E+01
    -12.977  0.0000E+00  0.4524E+01
    -12.966  0.3674E-10  0.4524E+01
    -12.955  0.5795E-06  0.4524E+01
    -12.944  0.9451E-03  0.4524E+01
    -12.933  0.1669E+00  0.4526E+01
    -12.923  0.3486E+01  0.4563E+01
    -12.912  0.9775E+01  0.4669E+01
    -12.901  0.3976E+01  0.4712E+01
    -12.890  0.6496E+00  0.4719E+01
    -12.879  0.3552E+01  0.4757E+01
    -12.868  0.4122E+01  0.4802E+01
    -12.858  0.6832E+00  0.4809E+01
    -12.847  0.1836E-01  0.4810E+01
    -12.836  0.4130E+00  0.4814E+01
    -12.825  0.5305E+01  0.4871E+01
    -12.814  0.9408E+01  0.4973E+01
    -12.804  0.2500E+01  0.5000E+01
    -12.793  0.1911E+01  0.5021E+01
    -12.782  0.4894E+01  0.5074E+01
    -12.771  0.2076E+01  0.5096E+01
    -12.760  0.3740E+01  0.5137E+01
    -12.750  0.9785E+01  0.5242E+01
    -12.739  0.3808E+01  0.5284E+01
    -12.728  0.2248E+00  0.5286E+01
    -12.717  0.9235E+00  0.5296E+01
    -12.706  0.4459E+01  0.5344E+01
    -12.695  0.3099E+01  0.5378E+01
    -12.685  0.3105E+00  0.5381E+01
    -12.674  0.5578E+00  0.5387E+01
    -12.663  0.4125E+01  0.5432E+01
    -12.652  0.6784E+01  0.5505E+01
    -12.641  0.5105E+01  0.5560E+01
    -12.631  0.1603E+01  0.5578E+01
    -12.620  0.3955E+01  0.5620E+01
    -12.609  0.3772E+01  0.5661E+01
    -12.598  0.9445E+00  0.5671E+01
    -12.587  0.6963E+01  0.5747E+01
    -12.577  0.1898E+02  0.5952E+01
    -12.566  0.1593E+02  0.6124E+01
    -12.555  0.1218E+02  0.6256E+01
    -12.544  0.2705E+01  0.6285E+01
    -12.533  0.8868E+00  0.6295E+01
    -12.523  0.6923E+01  0.6369E+01
    -12.512  0.8495E+01  0.6461E+01
    -12.501  0.4173E+01  0.6506E+01
    -12.490  0.9608E+01  0.6610E+01
    -12.479  0.4878E+01  0.6663E+01
    -12.468  0.3410E+00  0.6667E+01
    -12.458  0.3085E-02  0.6667E+01
    -12.447  0.6696E-01  0.6667E+01
    -12.436  0.2726E+01  0.6697E+01
    -12.425  0.1710E+02  0.6882E+01
    -12.414  0.2313E+02  0.7132E+01
    -12.404  0.9012E+01  0.7229E+01
    -12.393  0.8112E+00  0.7238E+01
    -12.382  0.1080E-01  0.7238E+01
    -12.371  0.1670E-04  0.7238E+01
    -12.360  0.9504E-07  0.7238E+01
    -12.350  0.2227E-03  0.7238E+01
    -12.339  0.5993E-01  0.7239E+01
    -12.328  0.1964E+01  0.7260E+01
    -12.317  0.8872E+01  0.7356E+01
    -12.306  0.6095E+01  0.7422E+01
    -12.295  0.6189E+00  0.7428E+01
    -12.285  0.8225E-02  0.7429E+01
    -12.274  0.2098E-03  0.7429E+01
    -12.263  0.5893E-01  0.7429E+01
    -12.252  0.2031E+01  0.7451E+01
    -12.241  0.9111E+01  0.7550E+01
    -12.231  0.5883E+01  0.7613E+01
    -12.220  0.5284E+00  0.7619E+01
    -12.209  0.1026E-01  0.7619E+01
    -12.198  0.3020E+00  0.7622E+01
    -12.187  0.3719E+01  0.7663E+01
    -12.177  0.1089E+02  0.7780E+01
    -12.166  0.6524E+01  0.7851E+01
    -12.155  0.2043E+01  0.7873E+01
    -12.144  0.8370E+01  0.7963E+01
    -12.133  0.6960E+01  0.8039E+01
    -12.122  0.8827E+00  0.8048E+01
    -12.112  0.1571E+01  0.8065E+01
    -12.101  0.4962E+01  0.8119E+01
    -12.090  0.4954E+01  0.8172E+01
    -12.079  0.9731E+01  0.8278E+01
    -12.068  0.4819E+01  0.8330E+01
    -12.058  0.3317E+00  0.8333E+01
    -12.047  0.2756E-02  0.8333E+01
    -12.036  0.2512E-05  0.8333E+01
    -12.025  0.1388E-04  0.8333E+01
    -12.014  0.9379E-02  0.8333E+01
    -12.004  0.7064E+00  0.8341E+01
    -11.993  0.6597E+01  0.8412E+01
    -11.982  0.8643E+01  0.8506E+01
    -11.971  0.1623E+01  0.8523E+01
    -11.960  0.6770E-01  0.8524E+01
    -11.950  0.1281E+01  0.8538E+01
    -11.939  0.9915E+01  0.8645E+01
    -11.928  0.1520E+02  0.8809E+01
    -11.917  0.4235E+01  0.8855E+01
    -11.906  0.1750E+00  0.8857E+01
    -11.895  0.3520E-02  0.8857E+01
    -11.885  0.3224E+00  0.8861E+01
    -11.874  0.4757E+01  0.8912E+01
    -11.863  0.9616E+01  0.9016E+01
    -11.852  0.2811E+01  0.9046E+01
    -11.841  0.1090E+00  0.9048E+01
    -11.831  0.3851E-01  0.9048E+01
    -11.820  0.1595E+01  0.9065E+01
    -11.809  0.8604E+01  0.9158E+01
    -11.798  0.6649E+01  0.9230E+01
    -11.787  0.7212E+00  0.9238E+01
    -11.777  0.9709E-02  0.9238E+01
    -11.766  0.1988E-03  0.9238E+01
    -11.755  0.5897E-01  0.9239E+01
    -11.744  0.2342E+01  0.9264E+01
    -11.733  0.1413E+02  0.9417E+01
    -11.722  0.1549E+02  0.9584E+01
    -11.712  0.3122E+01  0.9618E+01
    -11.701  0.3425E+00  0.9622E+01
    -11.690  0.3159E+01  0.9656E+01
    -11.679  0.9365E+01  0.9757E+01
    -11.668  0.1070E+02  0.9873E+01
    -11.658  0.2848E+01  0.9904E+01
    -11.647  0.1093E+00  0.9905E+01
    -11.636  0.4954E-03  0.9905E+01
    -11.625  0.2661E-06  0.9905E+01
    -11.614  0.7454E-04  0.9905E+01
    -11.604  0.2439E-01  0.9905E+01
    -11.593  0.9161E+00  0.9915E+01
    -11.582  0.4524E+01  0.9964E+01
    -11.571  0.5372E+01  0.1002E+02
    -11.560  0.9609E+01  0.1013E+02
    -11.549  0.5524E+01  0.1019E+02
    -11.539  0.4533E+00  0.1019E+02
    -11.528  0.4541E-02  0.1019E+02
    -11.517  0.5016E-05  0.1019E+02
    -11.506  0.5784E-09  0.1019E+02
    -11.495  0.7824E-14  0.1019E+02
    -11.485  0.0000E+00  0.1019E+02
    -11.474  0.3032E-13  0.1019E+02
    -11.463  0.1940E-08  0.1019E+02
    -11.452  0.1280E-04  0.1019E+02
    -11.441  0.8860E-02  0.1019E+02
    -11.431  0.6851E+00  0.1020E+02
    -11.420  0.6878E+01  0.1027E+02
    -11.409  0.1495E+02  0.1043E+02
    -11.398  0.1670E+02  0.1061E+02
    -11.387  0.1051E+02  0.1073E+02
    -11.377  0.9563E+01  0.1083E+02
    -11.366  0.2298E+01  0.1086E+02
    -11.355  0.7409E-01  0.1086E+02
    -11.344  0.2768E-03  0.1086E+02
    -11.333  0.4184E-05  0.1086E+02
    -11.322  0.3909E-02  0.1086E+02
    -11.312  0.4130E+00  0.1086E+02
    -11.301  0.5305E+01  0.1092E+02
    -11.290  0.9407E+01  0.1102E+02
    -11.279  0.2408E+01  0.1105E+02
    -11.268  0.1346E+00  0.1105E+02
    -11.258  0.2060E+01  0.1107E+02
    -11.247  0.1131E+02  0.1119E+02
    -11.236  0.1091E+02  0.1131E+02
    -11.225  0.2120E+01  0.1133E+02
    -11.214  0.3232E+01  0.1137E+02
    -11.204  0.1371E+02  0.1152E+02
    -11.193  0.8673E+01  0.1161E+02
    -11.182  0.9644E+00  0.1162E+02
    -11.171  0.4397E+01  0.1167E+02
    -11.160  0.1420E+02  0.1182E+02
    -11.149  0.7109E+01  0.1190E+02
    -11.139  0.5303E+00  0.1190E+02
    -11.128  0.5262E-02  0.1190E+02
    -11.117  0.6251E-05  0.1190E+02
    -11.106  0.8234E-09  0.1190E+02
    -11.095  0.1076E-13  0.1190E+02
    -11.085  0.0000E+00  0.1190E+02
    -11.074  0.0000E+00  0.1190E+02
    -11.063  0.0000E+00  0.1190E+02
    -11.052  0.0000E+00  0.1190E+02
    -11.041  0.0000E+00  0.1190E+02
    -11.031  0.0000E+00  0.1190E+02
    -11.020  0.0000E+00  0.1190E+02
    -11.009  0.1125E-13  0.1190E+02
    -10.998  0.7702E-09  0.1190E+02
    -10.987  0.5356E-05  0.1190E+02
    -10.976  0.3903E-02  0.1190E+02
    -10.966  0.3161E+00  0.1191E+02
    -10.955  0.3160E+01  0.1194E+02
    -10.944  0.4419E+01  0.1199E+02
    -10.933  0.8870E+00  0.1200E+02
    -10.922  0.2301E-01  0.1200E+02
    -10.912  0.6843E-04  0.1200E+02
    -10.901  0.2167E-07  0.1200E+02
    -10.890  0.7042E-12  0.1200E+02
    -10.879  0.0000E+00  0.1200E+02
    -10.868  0.0000E+00  0.1200E+02
    -10.858  0.0000E+00  0.1200E+02
    -10.847  0.0000E+00  0.1200E+02
    -10.836  0.0000E+00  0.1200E+02
    -10.825  0.0000E+00  0.1200E+02
    -10.814  0.0000E+00  0.1200E+02
    -10.803  0.0000E+00  0.1200E+02
    -10.793  0.0000E+00  0.1200E+02
    -10.782  0.0000E+00  0.1200E+02
    -10.771  0.0000E+00  0.1200E+02
    -10.760  0.0000E+00  0.1200E+02
    -10.749  0.0000E+00  0.1200E+02
    -10.739  0.0000E+00  0.1200E+02
    -10.728  0.0000E+00  0.1200E+02
    -10.717  0.0000E+00  0.1200E+02
    -10.706  0.0000E+00  0.1200E+02
    -10.695  0.0000E+00  0.1200E+02
    -10.685  0.0000E+00  0.1200E+02
    -10.674  0.0000E+00  0.1200E+02
    -10.663  0.0000E+00  0.1200E+02
    -10.652  0.0000E+00  0.1200E+02
    -10.641  0.0000E+00  0.1200E+02
    -10.631  0.0000E+00  0.1200E+02
    -10.620  0.0000E+00  0.1200E+02
    -10.609  0.0000E+00  0.1200E+02
    -10.598  0.0000E+00  0.1200E+02
    -10.587  0.0000E+00  0.1200E+02
    -10.576  0.0000E+00  0.1200E+02
    -10.566  0.0000E+00  0.1200E+02
    -10.555  0.0000E+00  0.1200E+02
    -10.544  0.0000E+00  0.1200E+02
    -10.533  0.0000E+00  0.1200E+02
    -10.522  0.0000E+00  0.1200E+02
    -10.512  0.0000E+00  0.1200E+02
    -10.501  0.0000E+00  0.1200E+02
    -10.490  0.0000E+00  0.1200E+02
    -10.479  0.0000E+00  0.1200E+02
    -10.468  0.0000E+00  0.1200E+02
    -10.458  0.0000E+00  0.1200E+02
    -10.447  0.0000E+00  0.1200E+02
    -10.436  0.1222E-13  0.1200E+02
    -10.425  0.8304E-09  0.1200E+02
    -10.414  0.5677E-05  0.1200E+02
    -10.403  0.4068E-02  0.1200E+02
    -10.393  0.3241E+00  0.1200E+02
    -10.382  0.3191E+01  0.1204E+02
    -10.371  0.4397E+01  0.1209E+02
    -10.360  0.8696E+00  0.1209E+02
    -10.349  0.2221E-01  0.1210E+02
    -10.339  0.6530E-04  0.1210E+02
    -10.328  0.6601E-03  0.1210E+02
    -10.317  0.1320E+00  0.1210E+02
    -10.306  0.3101E+01  0.1213E+02
    -10.295  0.9710E+01  0.1224E+02
    -10.285  0.4401E+01  0.1228E+02
    -10.274  0.2718E+00  0.1229E+02
    -10.263  0.2014E-02  0.1229E+02
    -10.252  0.1629E-05  0.1229E+02
    -10.241  0.1368E-09  0.1229E+02
    -10.230  0.0000E+00  0.1229E+02
    -10.220  0.0000E+00  0.1229E+02
    -10.209  0.0000E+00  0.1229E+02
    -10.198  0.0000E+00  0.1229E+02
    -10.187  0.0000E+00  0.1229E+02
    -10.176  0.0000E+00  0.1229E+02
    -10.166  0.0000E+00  0.1229E+02
    -10.155  0.0000E+00  0.1229E+02
    -10.144  0.0000E+00  0.1229E+02
    -10.133  0.0000E+00  0.1229E+02
    -10.122  0.0000E+00  0.1229E+02
    -10.112  0.0000E+00  0.1229E+02
    -10.101  0.0000E+00  0.1229E+02
    -10.090  0.0000E+00  0.1229E+02
    -10.079  0.9193E-13  0.1229E+02
    -10.068  0.4829E-08  0.1229E+02
    -10.058  0.2580E-04  0.1229E+02
    -10.047  0.1452E-01  0.1229E+02
    -10.036  0.9167E+00  0.1230E+02
    -10.025  0.7261E+01  0.1237E+02
    -10.014  0.8543E+01  0.1247E+02
    -10.003  0.4840E+01  0.1252E+02
     -9.993  0.4152E+01  0.1256E+02
     -9.982  0.6853E+00  0.1257E+02
     -9.971  0.1518E-01  0.1257E+02
     -9.960  0.1315E+00  0.1257E+02
     -9.949  0.3095E+01  0.1261E+02
     -9.939  0.9708E+01  0.1271E+02
     -9.928  0.4408E+01  0.1276E+02
     -9.917  0.2727E+00  0.1276E+02
     -9.906  0.2063E-02  0.1276E+02
     -9.895  0.1547E-01  0.1276E+02
     -9.885  0.7101E+00  0.1277E+02
     -9.874  0.4168E+01  0.1281E+02
     -9.863  0.3496E+01  0.1285E+02
     -9.852  0.4132E+00  0.1286E+02
     -9.841  0.6093E-02  0.1286E+02
     -9.830  0.1005E-04  0.1286E+02
     -9.820  0.1745E-08  0.1286E+02
     -9.809  0.3130E-13  0.1286E+02
     -9.798  0.6215E-10  0.1286E+02
     -9.787  0.8962E-06  0.1286E+02
     -9.776  0.1360E-02  0.1286E+02
     -9.766  0.2301E+00  0.1286E+02
     -9.755  0.4817E+01  0.1291E+02
     -9.744  0.1437E+02  0.1307E+02
     -9.733  0.7989E+01  0.1315E+02
     -9.722  0.6765E+01  0.1323E+02
     -9.712  0.1376E+02  0.1338E+02
     -9.701  0.1688E+02  0.1356E+02
     -9.690  0.5354E+01  0.1362E+02
     -9.679  0.3137E+00  0.1362E+02
     -9.668  0.6724E+00  0.1363E+02
     -9.657  0.4099E+01  0.1367E+02
     -9.647  0.3578E+01  0.1371E+02
     -9.636  0.4408E+00  0.1371E+02
     -9.625  0.6796E-02  0.1371E+02
     -9.614  0.1185E-04  0.1371E+02
     -9.603  0.2716E-03  0.1371E+02
     -9.593  0.7315E-01  0.1372E+02
     -9.582  0.2282E+01  0.1374E+02
     -9.571  0.9432E+01  0.1384E+02
     -9.560  0.8341E+01  0.1393E+02
     -9.549  0.1008E+02  0.1404E+02
     -9.539  0.4712E+01  0.1409E+02
     -9.528  0.4128E+00  0.1410E+02
     -9.517  0.2662E+01  0.1413E+02
     -9.506  0.9549E+01  0.1423E+02
     -9.495  0.4956E+01  0.1428E+02
     -9.484  0.3534E+00  0.1429E+02
     -9.474  0.3047E-02  0.1429E+02
     -9.463  0.1736E-03  0.1429E+02
     -9.452  0.5348E-01  0.1429E+02
     -9.441  0.1926E+01  0.1431E+02
     -9.430  0.9007E+01  0.1440E+02
     -9.420  0.6057E+01  0.1447E+02
     -9.409  0.5676E+00  0.1448E+02
     -9.398  0.6541E-02  0.1448E+02
     -9.387  0.8358E-05  0.1448E+02
     -9.376  0.6931E-05  0.1448E+02
     -9.366  0.5723E-02  0.1448E+02
     -9.355  0.5229E+00  0.1448E+02
     -9.344  0.5858E+01  0.1455E+02
     -9.333  0.9125E+01  0.1464E+02
     -9.322  0.2046E+01  0.1467E+02
     -9.312  0.5975E-01  0.1467E+02
     -9.301  0.2011E-03  0.1467E+02
     -9.290  0.7684E-07  0.1467E+02
     -9.279  0.2470E-04  0.1467E+02
     -9.268  0.1408E-01  0.1467E+02
     -9.257  0.9003E+00  0.1468E+02
     -9.247  0.7209E+01  0.1475E+02
     -9.236  0.8153E+01  0.1484E+02
     -9.225  0.1315E+01  0.1486E+02
     -9.214  0.2702E-01  0.1486E+02
     -9.203  0.6297E-04  0.1486E+02
     -9.193  0.2800E-07  0.1486E+02
     -9.182  0.4504E-04  0.1486E+02
     -9.171  0.1729E-01  0.1486E+02
     -9.160  0.7562E+00  0.1487E+02
     -9.149  0.4242E+01  0.1491E+02
     -9.139  0.3404E+01  0.1495E+02
     -9.128  0.3929E+00  0.1495E+02
     -9.117  0.6827E+00  0.1496E+02
     -9.106  0.6532E+01  0.1503E+02
     -9.095  0.1046E+02  0.1514E+02
     -9.084  0.1383E+02  0.1529E+02
     -9.074  0.2494E+02  0.1556E+02
     -9.063  0.2155E+02  0.1580E+02
     -9.052  0.9026E+01  0.1589E+02
     -9.041  0.1051E+01  0.1590E+02
     -9.030  0.1770E-01  0.1590E+02
     -9.020  0.3416E-04  0.1590E+02
     -9.009  0.2505E-04  0.1590E+02
     -8.998  0.1153E-01  0.1590E+02
     -8.987  0.6004E+00  0.1591E+02
     -8.976  0.3965E+01  0.1595E+02
     -8.966  0.3727E+01  0.1599E+02
     -8.955  0.4961E+00  0.1600E+02
     -8.944  0.8318E-02  0.1600E+02
     -8.933  0.7974E-02  0.1600E+02
     -8.922  0.4839E+00  0.1601E+02
     -8.911  0.3696E+01  0.1605E+02
     -8.901  0.4074E+01  0.1609E+02
     -8.890  0.3016E+01  0.1612E+02
     -8.879  0.1037E+02  0.1623E+02
     -8.868  0.1271E+02  0.1637E+02
     -8.857  0.8535E+01  0.1646E+02
     -8.847  0.3253E+01  0.1650E+02
     -8.836  0.5135E+01  0.1655E+02
     -8.825  0.5762E+01  0.1662E+02
     -8.814  0.1052E+02  0.1673E+02
     -8.803  0.9917E+01  0.1684E+02
     -8.793  0.9395E+01  0.1694E+02
     -8.782  0.7039E+01  0.1702E+02
     -8.771  0.1282E+02  0.1715E+02
     -8.760  0.2098E+02  0.1738E+02
     -8.749  0.1695E+02  0.1756E+02
     -8.739  0.4721E+01  0.1762E+02
     -8.728  0.1247E+01  0.1763E+02
     -8.717  0.4406E+01  0.1768E+02
     -8.706  0.3918E+01  0.1772E+02
     -8.695  0.4932E+01  0.1777E+02
     -8.684  0.5751E+01  0.1783E+02
     -8.674  0.2216E+01  0.1786E+02
     -8.663  0.4757E+01  0.1791E+02
     -8.652  0.1364E+02  0.1806E+02
     -8.641  0.7242E+01  0.1814E+02
     -8.630  0.6955E+00  0.1814E+02
     -8.620  0.1748E-01  0.1814E+02
     -8.609  0.6948E+00  0.1815E+02
     -8.598  0.8324E+01  0.1824E+02
     -8.587  0.1395E+02  0.1839E+02
     -8.576  0.5143E+01  0.1845E+02
     -8.566  0.1319E+02  0.1859E+02
     -8.555  0.1837E+02  0.1879E+02
     -8.544  0.5913E+01  0.1885E+02
     -8.533  0.4686E+00  0.1886E+02
     -8.522  0.9145E-02  0.1886E+02
     -8.511  0.1518E+00  0.1886E+02
     -8.501  0.1555E+01  0.1888E+02
     -8.490  0.2226E+01  0.1890E+02
     -8.479  0.4652E+00  0.1890E+02
     -8.468  0.6375E+00  0.1891E+02
     -8.457  0.6294E+01  0.1898E+02
     -8.447  0.8855E+01  0.1908E+02
     -8.436  0.1789E+01  0.1909E+02
     -8.425  0.4674E-01  0.1910E+02
     -8.414  0.1400E-03  0.1910E+02
     -8.403  0.5470E-05  0.1910E+02
     -8.393  0.3939E-02  0.1910E+02
     -8.382  0.3178E+00  0.1910E+02
     -8.371  0.3167E+01  0.1913E+02
     -8.360  0.4414E+01  0.1918E+02
     -8.349  0.8831E+00  0.1919E+02
     -8.338  0.2624E-01  0.1919E+02
     -8.328  0.3854E+00  0.1919E+02
     -8.317  0.5565E+01  0.1925E+02
     -8.306  0.1312E+02  0.1940E+02
     -8.295  0.6602E+01  0.1947E+02
     -8.284  0.7350E+00  0.1948E+02
     -8.274  0.1343E-01  0.1948E+02
     -8.263  0.3013E-04  0.1948E+02
     -8.252  0.1672E-06  0.1948E+02
     -8.241  0.4179E-03  0.1948E+02
     -8.230  0.1193E+00  0.1948E+02
     -8.220  0.4023E+01  0.1952E+02
     -8.209  0.1806E+02  0.1972E+02
     -8.198  0.1190E+02  0.1984E+02
     -8.187  0.1116E+01  0.1986E+02
     -8.176  0.1318E-01  0.1986E+02
     -8.165  0.1765E-04  0.1986E+02
     -8.155  0.2536E-08  0.1986E+02
     -8.144  0.1508E-06  0.1986E+02
     -8.133  0.2918E-03  0.1986E+02
     -8.122  0.6086E-01  0.1986E+02
     -8.111  0.1488E+01  0.1987E+02
     -8.101  0.4839E+01  0.1993E+02
     -8.090  0.2564E+01  0.1995E+02
     -8.079  0.4668E+01  0.2000E+02
     -8.068  0.9683E+01  0.2011E+02
     -8.057  0.2999E+01  0.2014E+02
     -8.047  0.1236E+00  0.2014E+02
     -8.036  0.5975E-03  0.2014E+02
     -8.025  0.4733E-06  0.2014E+02
     -8.014  0.3076E-03  0.2014E+02
     -8.003  0.6301E-01  0.2014E+02
     -7.993  0.1514E+01  0.2016E+02
     -7.982  0.4845E+01  0.2021E+02
     -7.971  0.2243E+01  0.2024E+02
     -7.960  0.1417E+00  0.2024E+02
     -7.949  0.1075E-02  0.2024E+02
     -7.938  0.5940E-05  0.2024E+02
     -7.928  0.4561E-02  0.2024E+02
     -7.917  0.4546E+00  0.2024E+02
     -7.906  0.5527E+01  0.2030E+02
     -7.895  0.9302E+01  0.2040E+02
     -7.884  0.2258E+01  0.2043E+02
     -7.874  0.7174E-01  0.2043E+02
     -7.863  0.2639E-03  0.2043E+02
     -7.852  0.2806E-03  0.2043E+02
     -7.841  0.7476E-01  0.2043E+02
     -7.830  0.2308E+01  0.2045E+02
     -7.820  0.9339E+01  0.2056E+02
     -7.809  0.5451E+01  0.2061E+02
     -7.798  0.4401E+00  0.2062E+02
     -7.787  0.4466E-02  0.2062E+02
     -7.776  0.3679E-01  0.2062E+02
     -7.765  0.1144E+01  0.2063E+02
     -7.755  0.4662E+01  0.2068E+02
     -7.744  0.2740E+01  0.2071E+02
     -7.733  0.2229E+00  0.2071E+02
     -7.722  0.2209E-02  0.2071E+02
     -7.711  0.2415E-05  0.2071E+02
     -7.701  0.3264E-07  0.2071E+02
     -7.690  0.1098E-03  0.2071E+02
     -7.679  0.3960E-01  0.2071E+02
     -7.668  0.1632E+01  0.2073E+02
     -7.657  0.8655E+01  0.2083E+02
     -7.647  0.6580E+01  0.2090E+02
     -7.636  0.7016E+00  0.2090E+02
     -7.625  0.9274E-02  0.2090E+02
     -7.614  0.1366E-04  0.2090E+02
     -7.603  0.2110E-08  0.2090E+02
     -7.592  0.3325E-13  0.2090E+02
     -7.582  0.0000E+00  0.2090E+02
     -7.571  0.0000E+00  0.2090E+02
     -7.560  0.0000E+00  0.2090E+02
     -7.549  0.0000E+00  0.2090E+02
     -7.538  0.0000E+00  0.2090E+02
     -7.528  0.0000E+00  0.2090E+02
     -7.517  0.0000E+00  0.2090E+02
     -7.506  0.3325E-13  0.2090E+02
     -7.495  0.2137E-08  0.2090E+02
     -7.484  0.1379E-04  0.2090E+02
     -7.474  0.9338E-02  0.2090E+02
     -7.463  0.7045E+00  0.2091E+02
     -7.452  0.6591E+01  0.2098E+02
     -7.441  0.8648E+01  0.2108E+02
     -7.430  0.1626E+01  0.2109E+02
     -7.420  0.3936E-01  0.2110E+02
     -7.409  0.1088E-03  0.2110E+02
     -7.398  0.3199E-07  0.2110E+02
     -7.387  0.9623E-12  0.2110E+02
     -7.376  0.0000E+00  0.2110E+02
     -7.365  0.1242E-12  0.2110E+02
     -7.355  0.5386E-08  0.2110E+02
     -7.344  0.2382E-04  0.2110E+02
     -7.333  0.1114E-01  0.2110E+02
     -7.322  0.5885E+00  0.2110E+02
     -7.311  0.3941E+01  0.2114E+02
     -7.301  0.3753E+01  0.2118E+02
     -7.290  0.5066E+00  0.2119E+02
     -7.279  0.8605E-02  0.2119E+02
     -7.268  0.1645E-04  0.2119E+02
     -7.257  0.6311E-05  0.2119E+02
     -7.247  0.5351E-02  0.2119E+02
     -7.236  0.5017E+00  0.2120E+02
     -7.225  0.5759E+01  0.2126E+02
     -7.214  0.9180E+01  0.2136E+02
     -7.203  0.2110E+01  0.2138E+02
     -7.192  0.3093E+00  0.2138E+02
     -7.182  0.4203E+01  0.2143E+02
     -7.171  0.9747E+01  0.2153E+02
     -7.160  0.3273E+01  0.2157E+02
     -7.149  0.1470E+00  0.2157E+02
     -7.138  0.1739E-01  0.2157E+02
     -7.128  0.9925E+00  0.2158E+02
     -7.117  0.7455E+01  0.2166E+02
     -7.106  0.7930E+01  0.2175E+02
     -7.095  0.1200E+01  0.2176E+02
     -7.084  0.2305E-01  0.2176E+02
     -7.074  0.5005E-04  0.2176E+02
     -7.063  0.1149E-07  0.2176E+02
     -7.052  0.2699E-12  0.2176E+02
     -7.041  0.0000E+00  0.2176E+02
     -7.030  0.0000E+00  0.2176E+02
     -7.019  0.0000E+00  0.2176E+02