 vasp.5.4.4.18Apr17-6-g9f103f2a35 (build Jun 20 2017 18:00:50) complex          
  
 executed on             LinuxIFC date 2018.03.22  15:20:06
 running on   32 total cores
 distrk:  each k-point on   32 cores,    1 groups
 distr:  one band on NCORES_PER_BAND=   8 cores,    4 groups


--------------------------------------------------------------------------------------------------------


 INCAR:
 POTCAR:    PAW_PBE P 06Sep2000                   
 POTCAR:    PAW_PBE P 06Sep2000                   
   VRHFIN =P : s2p3                                                             
   LEXCH  = PE                                                                  
   EATOM  =   176.0430 eV,   12.9388 Ry                                         
                                                                                
   TITEL  = PAW_PBE P 06Sep2000                                                 
   LULTRA =        F    use ultrasoft PP ?                                      
   IUNSCR =        1    unscreen: 0-lin 1-nonlin 2-no                           
   RPACOR =    1.500    partial core radius                                     
   POMASS =   30.974; ZVAL   =    5.000    mass and valenz                      
   RCORE  =    1.900    outmost cutoff radius                                   
   RWIGS  =    2.330; RWIGS  =    1.233    wigner-seitz radius (au A)           
   ENMAX  =  255.040; ENMIN  =  191.280 eV                                      
   ICORE  =        2    local potential                                         
   LCOR   =        T    correct aug charges                                     
   LPAW   =        T    paw PP                                                  
   EAUG   =  342.924                                                            
   DEXC   =    0.000                                                            
   RMAX   =    1.935    core radius for proj-oper                               
   RAUG   =    1.300    factor for augmentation sphere                          
   RDEP   =    1.931    radius for radial grids                                 
   RDEPT  =    1.794    core radius for aug-charge                              
                                                                                
   Atomic configuration                                                         
    6 entries                                                                   
     n  l   j            E        occ.                                          
     1  0  0.50     -2084.0982   2.0000                                         
     2  0  0.50      -173.9859   2.0000                                         
     2  1  1.50      -124.4865   6.0000                                         
     3  0  0.50       -13.9692   2.0000                                         
     3  1  0.50        -5.5067   3.0000                                         
     3  2  1.50        -5.4423   0.0000                                         
   Description                                                                  
     l       E           TYP  RCUT    TYP  RCUT                                 
     0    -13.9691527     23  1.900                                             
     0    -11.7794650     23  1.900                                             
     1     -5.5066937     23  1.900                                             
     1     -0.2556953     23  1.900                                             
     2     -5.4423304     23  1.900                                             
  local pseudopotential read in
  partial core-charges read in
  partial kinetic energy density read in
  atomic valenz-charges read in
  non local Contribution for L=           0  read in
    real space projection operators read in
  non local Contribution for L=           0  read in
    real space projection operators read in
  non local Contribution for L=           1  read in
    real space projection operators read in
  non local Contribution for L=           1  read in
    real space projection operators read in
    PAW grid and wavefunctions read in
 
   number of l-projection  operators is LMAX  =           4
   number of lm-projection operators is LMMAX =           8
 
  PAW_PBE P 06Sep2000                   :
 energy of atom  1       EATOM= -176.0430
 kinetic energy error for atom=    0.0019 (will be added to EATOM!!)
 
 
 POSCAR: P12                                     
  positions in direct lattice
  No initial velocities read in
 exchange correlation table for  LEXCH =        8
   RHO(1)=    0.500       N(1)  =     2000
   RHO(2)=  100.500       N(2)  =     4000
 


--------------------------------------------------------------------------------------------------------


 ion  position               nearest neighbor table
   1  0.000  0.307  0.919-   2 2.23   2 2.23   3 2.26
   2  0.500  0.307  0.581-   1 2.23   1 2.23   4 2.26
   3  0.000  0.372  0.081-   4 2.23   4 2.23   1 2.26
   4  0.500  0.372  0.419-   3 2.23   3 2.23   2 2.26
   5  0.500  0.467  0.419-   6 2.23   6 2.23   7 2.26
   6  0.000  0.467  0.081-   5 2.23   5 2.23   8 2.26
   7  0.500  0.533  0.581-   8 2.23   8 2.23   5 2.26
   8  0.000  0.533  0.919-   7 2.23   7 2.23   6 2.26
   9  0.000  0.628  0.919-  10 2.23  10 2.23  11 2.26
  10  0.500  0.628  0.581-   9 2.23   9 2.23  12 2.26
  11  0.000  0.693  0.081-  12 2.23  12 2.23   9 2.26
  12  0.500  0.693  0.419-  11 2.23  11 2.23  10 2.26
 
  LATTYP: Found a simple orthorhombic cell.
 ALAT       =     3.3428860000
 B/A-ratio  =     1.3086988309
 C/A-ratio  =     9.7527732026
  
  Lattice vectors:
  
 A1 = (  -3.3428860000,   0.0000000000,   0.0000000000)
 A2 = (   0.0000000000,   0.0000000000,  -4.3748310000)
 A3 = (   0.0000000000, -32.6024090000,   0.0000000000)


Analysis of symmetry for initial positions (statically):
=====================================================================
 Subroutine PRICEL returns:
 Original cell was already a primitive cell.
 

 Routine SETGRP: Setting up the symmetry group for a 
 simple orthorhombic supercell.


 Subroutine GETGRP returns: Found  8 space group operations
 (whereof  4 operations were pure point group operations)
 out of a pool of  8 trial point group operations.


The static configuration has the point symmetry C_2h.
 The point group associated with its full space group is D_2h.


Analysis of symmetry for dynamics (positions and initial velocities):
=====================================================================
 Subroutine PRICEL returns:
 Original cell was already a primitive cell.
 

 Routine SETGRP: Setting up the symmetry group for a 
 simple orthorhombic supercell.


 Subroutine GETGRP returns: Found  8 space group operations
 (whereof  4 operations were pure point group operations)
 out of a pool of  8 trial point group operations.


The dynamic configuration has the point symmetry C_2h.
 The point group associated with its full space group is D_2h.


 Subroutine INISYM returns: Found  8 space group operations
 (whereof  4 operations are pure point group operations),
 and found     1 'primitive' translations

 
 
 KPOINTS: Automatic mesh                          

Automatic generation of k-mesh.
Space group operators:
 irot       det(A)        alpha          n_x          n_y          n_z        tau_x        tau_y        tau_z
    1     1.000000     0.000001     1.000000     0.000000     0.000000     0.000000     0.000000     0.000000
    2    -1.000000     0.000001     1.000000     0.000000     0.000000     0.000000     0.000000     0.000000
    3     1.000000   179.999999     1.000000     0.000000     0.000000     0.000000     0.000000     0.000000
    4    -1.000000   179.999999     1.000000     0.000000     0.000000     0.000000     0.000000     0.000000
    5     1.000000   179.999999     0.000000     1.000000     0.000000    -0.500000     0.000000    -0.500000
    6    -1.000000   179.999999     0.000000     1.000000     0.000000    -0.500000     0.000000    -0.500000
    7     1.000000   179.999999     0.000000     0.000000     1.000000    -0.500000     0.000000    -0.500000
    8    -1.000000   179.999999     0.000000     0.000000     1.000000    -0.500000     0.000000    -0.500000
 
 Subroutine IBZKPT returns following result:
 ===========================================
 
 Found     16 irreducible k-points:
 
 Following reciprocal coordinates:
            Coordinates               Weight
  0.000000  0.000000  0.000000      1.000000
  0.142857  0.000000  0.000000      2.000000
  0.285714  0.000000  0.000000      2.000000
  0.428571  0.000000  0.000000      2.000000
  0.000000  0.000000  0.166667      2.000000
  0.142857  0.000000  0.166667      4.000000
  0.285714  0.000000  0.166667      4.000000
  0.428571  0.000000  0.166667      4.000000
  0.000000  0.000000  0.333333      2.000000
  0.142857  0.000000  0.333333      4.000000
  0.285714  0.000000  0.333333      4.000000
  0.428571  0.000000  0.333333      4.000000
  0.000000  0.000000  0.500000      1.000000
  0.142857  0.000000  0.500000      2.000000
  0.285714  0.000000  0.500000      2.000000
  0.428571  0.000000  0.500000      2.000000
 
 Following cartesian coordinates:
            Coordinates               Weight
  0.000000  0.000000  0.000000      1.000000
  0.042735  0.000000  0.000000      2.000000
  0.085469  0.000000  0.000000      2.000000
  0.128204  0.000000  0.000000      2.000000
  0.000000  0.000000  0.038097      2.000000
  0.042735  0.000000  0.038097      4.000000
  0.085469  0.000000  0.038097      4.000000
  0.128204  0.000000  0.038097      4.000000
  0.000000  0.000000  0.076193      2.000000
  0.042735  0.000000  0.076193      4.000000
  0.085469  0.000000  0.076193      4.000000
  0.128204  0.000000  0.076193      4.000000
  0.000000  0.000000  0.114290      1.000000
  0.042735  0.000000  0.114290      2.000000
  0.085469  0.000000  0.114290      2.000000
  0.128204  0.000000  0.114290      2.000000
 


--------------------------------------------------------------------------------------------------------




 Dimension of arrays:
   k-points           NKPTS =     16   k-points in BZ     NKDIM =     16   number of bands    NBANDS=     40
   number of dos      NEDOS =   2000   number of ions     NIONS =     12
   non local maximal  LDIM  =      4   non local SUM 2l+1 LMDIM =      8
   total plane-waves  NPLWV =  77760
   max r-space proj   IRMAX =      1   max aug-charges    IRDMAX=   5162
   dimension x,y,z NGX =    18 NGY =  180 NGZ =   24
   dimension x,y,z NGXF=    36 NGYF=  360 NGZF=   48
   support grid    NGXF=    36 NGYF=  360 NGZF=   48
   ions per type =              12
   NGX,Y,Z   is equivalent  to a cutoff of   8.95,  9.18,  9.12 a.u.
   NGXF,Y,Z  is equivalent  to a cutoff of  17.90, 18.36, 18.24 a.u.

 SYSTEM =  Generic Input                           
 POSCAR =  P12                                     

 Startparameter for this run:
   NWRITE =      2    write-flag & timer
   PREC   = normal    normal or accurate (medium, high low for compatibility)
   ISTART =      0    job   : 0-new  1-cont  2-samecut
   ICHARG =      2    charge: 1-file 2-atom 10-const
   ISPIN  =      1    spin polarized calculation?
   LNONCOLLINEAR =      F non collinear calculations
   LSORBIT =      F    spin-orbit coupling
   INIWAV =      1    electr: 0-lowe 1-rand  2-diag
   LASPH  =      T    aspherical Exc in radial PAW
   METAGGA=      F    non-selfconsistent MetaGGA calc.

 Electronic Relaxation 1
   ENCUT  =  450.0 eV  33.07 Ry    5.75 a.u.   5.78 56.39  7.57*2*pi/ulx,y,z
   ENINI  =  450.0     initial cutoff
   ENAUG  =  342.9 eV  augmentation charge cutoff
   NELM   =    200;   NELMIN=  2; NELMDL=  0     # of ELM steps 
   EDIFF  = 0.1E-04   stopping-criterion for ELM
   LREAL  =      F    real-space projection
   NLSPLINE    = F    spline interpolate recip. space projectors
   LCOMPAT=      F    compatible to vasp.4.4
   GGA_COMPAT  = T    GGA compatible to vasp.4.4-vasp.4.6
   LMAXPAW     = -100 max onsite density
   LMAXMIX     =    2 max onsite mixed and CHGCAR
   VOSKOWN=      0    Vosko Wilk Nusair interpolation
   ROPT   =    0.00000
 Ionic relaxation
   EDIFFG = -.2E-01   stopping-criterion for IOM
   NSW    =      0    number of steps for IOM
   NBLOCK =      1;   KBLOCK =      1    inner block; outer block 
   IBRION =     -1    ionic relax: 0-MD 1-quasi-New 2-CG
   NFREE  =      1    steps in history (QN), initial steepest desc. (CG)
   ISIF   =      3    stress and relaxation
   IWAVPR =     11    prediction:  0-non 1-charg 2-wave 3-comb
   ISYM   =      2    0-nonsym 1-usesym 2-fastsym
   LCORR  =      T    Harris-Foulkes like correction to forces

   POTIM  = 0.5000    time-step for ionic-motion
   TEIN   =    0.0    initial temperature
   TEBEG  =    0.0;   TEEND  =   0.0 temperature during run
   SMASS  =  -3.00    Nose mass-parameter (am)
   estimated Nose-frequenzy (Omega)   =  0.10E-29 period in steps =****** mass=  -0.255E-27a.u.
   SCALEE = 1.0000    scale energy and forces
   NPACO  =    256;   APACO  = 16.0  distance and # of slots for P.C.
   PSTRESS=    0.0 pullay stress

  Mass of Ions in am
   POMASS =  30.97
  Ionic Valenz
   ZVAL   =   5.00
  Atomic Wigner-Seitz radii
   RWIGS  =  -1.00
  virtual crystal weights 
   VCA    =   1.00
   NELECT =      60.0000    total number of electrons
   NUPDOWN=      -1.0000    fix difference up-down

 DOS related values:
   EMIN   =  10.00;   EMAX   =-10.00  energy-range for DOS
   EFERMI =   0.00
   ISMEAR =     0;   SIGMA  =   0.01  broadening in eV -4-tet -1-fermi 0-gaus

 Electronic relaxation 2 (details)
   IALGO  =     38    algorithm
   LDIAG  =      T    sub-space diagonalisation (order eigenvalues)
   LSUBROT=      F    optimize rotation matrix (better conditioning)
   TURBO    =      0    0=normal 1=particle mesh
   IRESTART =      0    0=no restart 2=restart with 2 vectors
   NREBOOT  =      0    no. of reboots
   NMIN     =      0    reboot dimension
   EREF     =   0.00    reference energy to select bands
   IMIX   =      4    mixing-type and parameters
     AMIX     =   0.40;   BMIX     =  1.00
     AMIX_MAG =   1.60;   BMIX_MAG =  1.00
     AMIN     =   0.10
     WC   =   100.;   INIMIX=   1;  MIXPRE=   1;  MAXMIX= -45

 Intra band minimization:
   WEIMIN = 0.0000     energy-eigenvalue tresh-hold
   EBREAK =  0.63E-07  absolut break condition
   DEPER  =   0.30     relativ break condition  

   TIME   =   0.40     timestep for ELM

  volume/ion in A,a.u.               =      39.73       268.13
  Fermi-wavevector in a.u.,A,eV,Ry     =   0.820379  1.550291  9.157011  0.673021
  Thomas-Fermi vector in A             =   1.931350
 
 Write flags
   LWAVE        =      T    write WAVECAR
   LDOWNSAMPLE  =      F    k-point downsampling of WAVECAR
   LCHARG       =      T    write CHGCAR
   LVTOT        =      F    write LOCPOT, total local potential
   LVHAR        =      T    write LOCPOT, Hartree potential only
   LELF         =      F    write electronic localiz. function (ELF)
   LORBIT       =     11    0 simple, 1 ext, 2 COOP (PROOUT), +10 PAW based schemes


 Dipole corrections
   LMONO  =      F    monopole corrections only (constant potential shift)
   LDIPOL =      F    correct potential (dipole corrections)
   IDIPOL =      0    1-x, 2-y, 3-z, 4-all directions 
   EPSILON=  1.0000000 bulk dielectric constant

 Core level calculations are selected ICORELEVEL =  1
 Exchange correlation treatment:
   GGA     =    PE    GGA type
   LEXCH   =     8    internal setting for exchange type
   VOSKOWN=      0    Vosko Wilk Nusair interpolation
   LHFCALC =     F    Hartree Fock is set to
   LHFONE  =     F    Hartree Fock one center treatment
   AEXX    =    0.0000 exact exchange contribution

 Linear response parameters
   LEPSILON=     F    determine dielectric tensor
   LRPA    =     F    only Hartree local field effects (RPA)
   LNABLA  =     F    use nabla operator in PAW spheres
   LVEL    =     F    velocity operator in full k-point grid
   LINTERFAST=   F  fast interpolation
   KINTER  =     0    interpolate to denser k-point grid
   CSHIFT  =0.1000    complex shift for real part using Kramers Kronig
   OMEGAMAX=  -1.0    maximum frequency
   DEG_THRESHOLD= 0.2000000E-02 threshold for treating states as degnerate
   RTIME   =   -0.100 relaxation time in fs
  (WPLASMAI=    0.000 imaginary part of plasma frequency in eV, 0.658/RTIME)
   DFIELD  = 0.0000000 0.0000000 0.0000000 field for delta impulse in time
 
 Orbital magnetization related:
   ORBITALMAG=     F  switch on orbital magnetization
   LCHIMAG   =     F  perturbation theory with respect to B field
   DQ        =  0.001000  dq finite difference perturbation B field
   LLRAUG    =     F  two centre corrections for induced B field



--------------------------------------------------------------------------------------------------------


 Static calculation
 charge density and potential will be updated during run
 non-spin polarized calculation
 Variant of blocked Davidson
 Davidson routine will perform the subspace rotation
 perform sub-space diagonalisation
    after iterative eigenvector-optimisation
 modified Broyden-mixing scheme, WC =      100.0
 initial mixing is a Kerker type mixing with AMIX =  0.4000 and BMIX =      1.0000
 Hartree-type preconditioning will be used
 using additional bands           10
 reciprocal scheme for non local part
 use partial core corrections
 calculate Harris-corrections to forces 
   (improved forces if not selfconsistent)
 use gradient corrections 
 use of overlap-Matrix (Vanderbilt PP)
 Gauss-broadening in eV      SIGMA  =   0.01


--------------------------------------------------------------------------------------------------------


  energy-cutoff  :      450.00
  volume of cell :      476.80
      direct lattice vectors                 reciprocal lattice vectors
     3.342886000  0.000000000  0.000000000     0.299142717  0.000000000  0.000000000
     0.000000000 32.602409000  0.000000000     0.000000000  0.030672580  0.000000000
     0.000000000  0.000000000  4.374831000     0.000000000  0.000000000  0.228580258

  length of vectors
     3.342886000 32.602409000  4.374831000     0.299142717  0.030672580  0.228580258


 
 k-points in units of 2pi/SCALE and weight: Automatic mesh                          
   0.00000000  0.00000000  0.00000000       0.024
   0.04273467  0.00000000  0.00000000       0.048
   0.08546935  0.00000000  0.00000000       0.048
   0.12820402  0.00000000  0.00000000       0.048
   0.00000000  0.00000000  0.03809671       0.048
   0.04273467  0.00000000  0.03809671       0.095
   0.08546935  0.00000000  0.03809671       0.095
   0.12820402  0.00000000  0.03809671       0.095
   0.00000000  0.00000000  0.07619342       0.048
   0.04273467  0.00000000  0.07619342       0.095
   0.08546935  0.00000000  0.07619342       0.095
   0.12820402  0.00000000  0.07619342       0.095
   0.00000000  0.00000000  0.11429013       0.024
   0.04273467  0.00000000  0.11429013       0.048
   0.08546935  0.00000000  0.11429013       0.048
   0.12820402  0.00000000  0.11429013       0.048
 
 k-points in reciprocal lattice and weights: Automatic mesh                          
   0.00000000  0.00000000  0.00000000       0.024
   0.14285714  0.00000000  0.00000000       0.048
   0.28571429  0.00000000  0.00000000       0.048
   0.42857143  0.00000000  0.00000000       0.048
   0.00000000  0.00000000  0.16666667       0.048
   0.14285714  0.00000000  0.16666667       0.095
   0.28571429  0.00000000  0.16666667       0.095
   0.42857143  0.00000000  0.16666667       0.095
   0.00000000  0.00000000  0.33333333       0.048
   0.14285714  0.00000000  0.33333333       0.095
   0.28571429  0.00000000  0.33333333       0.095
   0.42857143  0.00000000  0.33333333       0.095
   0.00000000  0.00000000  0.50000000       0.024
   0.14285714  0.00000000  0.50000000       0.048
   0.28571429  0.00000000  0.50000000       0.048
   0.42857143  0.00000000  0.50000000       0.048
 
 position of ions in fractional coordinates (direct lattice) 
   0.00000000  0.30672600  0.91892400
   0.50000000  0.30672600  0.58107600
   0.00000000  0.37246700  0.08107600
   0.50000000  0.37246700  0.41892400
   0.50000000  0.46712900  0.41892400
   0.00000000  0.46712900  0.08107600
   0.50000000  0.53287100  0.58107600
   0.00000000  0.53287100  0.91892400
   0.00000000  0.62753300  0.91892400
   0.50000000  0.62753300  0.58107600
   0.00000000  0.69327400  0.08107600
   0.50000000  0.69327400  0.41892400
 
 position of ions in cartesian coordinates  (Angst):
   0.00000000 10.00000650  4.02013720
   1.67144300 10.00000650  2.54210930
   0.00000000 12.14332147  0.35469380
   1.67144300 12.14332147  1.83272170
   1.67144300 15.22953071  1.83272170
   0.00000000 15.22953071  0.35469380
   1.67144300 17.37287829  2.54210930
   0.00000000 17.37287829  4.02013720
   0.00000000 20.45908753  4.02013720
   1.67144300 20.45908753  2.54210930
   0.00000000 22.60240250  0.35469380
   1.67144300 22.60240250  1.83272170
 


--------------------------------------------------------------------------------------------------------


 k-point  1 :   0.0000 0.0000 0.0000  plane waves:   10373
 k-point  2 :   0.1429 0.0000 0.0000  plane waves:   10377
 k-point  3 :   0.2857 0.0000 0.0000  plane waves:   10340
 k-point  4 :   0.4286 0.0000 0.0000  plane waves:   10334
 k-point  5 :   0.0000 0.0000 0.1667  plane waves:   10367
 k-point  6 :   0.1429 0.0000 0.1667  plane waves:   10356
 k-point  7 :   0.2857 0.0000 0.1667  plane waves:   10340
 k-point  8 :   0.4286 0.0000 0.1667  plane waves:   10345
 k-point  9 :   0.0000 0.0000 0.3333  plane waves:   10325
 k-point 10 :   0.1429 0.0000 0.3333  plane waves:   10297
 k-point 11 :   0.2857 0.0000 0.3333  plane waves:   10324
 k-point 12 :   0.4286 0.0000 0.3333  plane waves:   10350
 k-point 13 :   0.0000 0.0000 0.5000  plane waves:   10272
 k-point 14 :   0.1429 0.0000 0.5000  plane waves:   10266
 k-point 15 :   0.2857 0.0000 0.5000  plane waves:   10306
 k-point 16 :   0.4286 0.0000 0.5000  plane waves:   10390

 maximum and minimum number of plane-waves per node :      1309     1267

 maximum number of plane-waves:     10390
 maximum index in each direction: 
   IXMAX=    5   IYMAX=   56   IZMAX=    7
   IXMIN=   -6   IYMIN=  -56   IZMIN=   -8


 parallel 3D FFT for wavefunctions:
    minimum data exchange during FFTs selected (reduces bandwidth)
 parallel 3D FFT for charge:
    minimum data exchange during FFTs selected (reduces bandwidth)


 total amount of memory used by VASP MPI-rank0    38699. kBytes
=======================================================================

   base      :      30000. kBytes
   nonl-proj :       1595. kBytes
   fftplans  :       1467. kBytes
   grid      :       2232. kBytes
   one-center:          6. kBytes
   wavefun   :       3399. kBytes
 
     INWAV:  cpu time    0.0000: real time    0.0000
 Broyden mixing: mesh for mixing (old mesh)
   NGX = 11   NGY =113   NGZ = 15
  (NGX  = 36   NGY  =360   NGZ  = 48)
  gives a total of  18645 points

 initial charge density was supplied:
 charge density of overlapping atoms calculated
 number of electron      60.0000000 magnetization 
 keeping initial charge density in first step


--------------------------------------------------------------------------------------------------------


 Maximum index for augmentation-charges          651 (set IRDMAX)


--------------------------------------------------------------------------------------------------------


 First call to EWALD:  gamma=   0.227
 Maximum number of real-space cells 6x 1x 5
 Maximum number of reciprocal cells 1x10x 2

    FEWALD:  cpu time    0.0017: real time    0.0017


--------------------------------------- Iteration      1(   1)  ---------------------------------------


    POTLOK:  cpu time    0.0369: real time    0.0436
    SETDIJ:  cpu time    0.0655: real time    0.0656
     EDDAV:  cpu time    0.8420: real time    0.8661
       DOS:  cpu time    0.0007: real time    0.0007
    --------------------------------------------
      LOOP:  cpu time    0.9451: real time    0.9760

 eigenvalue-minimisations  :  1280
 total energy-change (2. order) : 0.3569895E+03  (-0.2036881E+04)
 number of electron      60.0000000 magnetization 
 augmentation part       60.0000000 magnetization 

 Free energy of the ion-electron system (eV)
  ---------------------------------------------------
  alpha Z        PSCENC =        30.28014394
  Ewald energy   TEWEN  =     14984.29168251
  -Hartree energ DENC   =    -16938.86341412
  -exchange      EXHF   =         0.00000000
  -V(xc)+E(xc)   XCENC  =        40.54558770
  PAW double counting   =      1677.12035881    -1579.18296132
  entropy T*S    EENTRO =        -0.00045232
  eigenvalues    EBANDS =        30.30483997
  atomic energy  EATOM  =      2112.49373795
  Solvation  Ediel_sol  =         0.00000000
  ---------------------------------------------------
  free energy    TOTEN  =       356.98952313 eV

  energy without entropy =      356.98997545  energy(sigma->0) =      356.98974929


--------------------------------------------------------------------------------------------------------




--------------------------------------- Iteration      1(   2)  ---------------------------------------


     EDDAV:  cpu time    0.9659: real time    0.9680
       DOS:  cpu time    0.0004: real time    0.0004
    --------------------------------------------
      LOOP:  cpu time    0.9664: real time    0.9685

 eigenvalue-minimisations  :  1800
 total energy-change (2. order) :-0.3806588E+03  (-0.3679094E+03)
 number of electron      60.0000000 magnetization 
 augmentation part       60.0000000 magnetization 

 Free energy of the ion-electron system (eV)
  ---------------------------------------------------
  alpha Z        PSCENC =        30.28014394
  Ewald energy   TEWEN  =     14984.29168251
  -Hartree energ DENC   =    -16938.86341412
  -exchange      EXHF   =         0.00000000
  -V(xc)+E(xc)   XCENC  =        40.54558770
  PAW double counting   =      1677.12035881    -1579.18296132
  entropy T*S    EENTRO =        -0.00000000
  eigenvalues    EBANDS =      -350.35440666
  atomic energy  EATOM  =      2112.49373795
  Solvation  Ediel_sol  =         0.00000000
  ---------------------------------------------------
  free energy    TOTEN  =       -23.66927118 eV

  energy without entropy =      -23.66927118  energy(sigma->0) =      -23.66927118


--------------------------------------------------------------------------------------------------------




--------------------------------------- Iteration      1(   3)  ---------------------------------------


     EDDAV:  cpu time    0.8422: real time    0.8446
       DOS:  cpu time    0.0004: real time    0.0004
    --------------------------------------------
      LOOP:  cpu time    0.8426: real time    0.8451

 eigenvalue-minimisations  :  1528
 total energy-change (2. order) :-0.3908070E+02  (-0.3853063E+02)
 number of electron      60.0000000 magnetization 
 augmentation part       60.0000000 magnetization 

 Free energy of the ion-electron system (eV)
  ---------------------------------------------------
  alpha Z        PSCENC =        30.28014394
  Ewald energy   TEWEN  =     14984.29168251
  -Hartree energ DENC   =    -16938.86341412
  -exchange      EXHF   =         0.00000000
  -V(xc)+E(xc)   XCENC  =        40.54558770
  PAW double counting   =      1677.12035881    -1579.18296132
  entropy T*S    EENTRO =        -0.00000000
  eigenvalues    EBANDS =      -389.43510662
  atomic energy  EATOM  =      2112.49373795
  Solvation  Ediel_sol  =         0.00000000
  ---------------------------------------------------
  free energy    TOTEN  =       -62.74997114 eV

  energy without entropy =      -62.74997114  energy(sigma->0) =      -62.74997114


--------------------------------------------------------------------------------------------------------




--------------------------------------- Iteration      1(   4)  ---------------------------------------


     EDDAV:  cpu time    1.0258: real time    1.0306
       DOS:  cpu time    0.0005: real time    0.0005
    --------------------------------------------
      LOOP:  cpu time    1.0263: real time    1.0310

 eigenvalue-minimisations  :  1952
 total energy-change (2. order) :-0.1482667E+01  (-0.1473688E+01)
 number of electron      60.0000000 magnetization 
 augmentation part       60.0000000 magnetization 

 Free energy of the ion-electron system (eV)
  ---------------------------------------------------
  alpha Z        PSCENC =        30.28014394
  Ewald energy   TEWEN  =     14984.29168251
  -Hartree energ DENC   =    -16938.86341412
  -exchange      EXHF   =         0.00000000
  -V(xc)+E(xc)   XCENC  =        40.54558770
  PAW double counting   =      1677.12035881    -1579.18296132
  entropy T*S    EENTRO =        -0.00000000
  eigenvalues    EBANDS =      -390.91777397
  atomic energy  EATOM  =      2112.49373795
  Solvation  Ediel_sol  =         0.00000000
  ---------------------------------------------------
  free energy    TOTEN  =       -64.23263850 eV

  energy without entropy =      -64.23263850  energy(sigma->0) =      -64.23263850


--------------------------------------------------------------------------------------------------------




--------------------------------------- Iteration      1(   5)  ---------------------------------------


     EDDAV:  cpu time    1.0284: real time    1.0307
       DOS:  cpu time    0.0005: real time    0.0005
    CHARGE:  cpu time    0.0436: real time    0.0436
    MIXING:  cpu time    0.0008: real time    0.0008
    --------------------------------------------
      LOOP:  cpu time    1.0732: real time    1.0756

 eigenvalue-minimisations  :  1864
 total energy-change (2. order) :-0.3522489E-01  (-0.3519552E-01)
 number of electron      59.9999987 magnetization 
 augmentation part       -6.5357091 magnetization 

 Broyden mixing:
  rms(total) = 0.17734E+01    rms(broyden)= 0.17734E+01
  rms(prec ) = 0.17788E+01
  weight for this iteration     100.00

 Free energy of the ion-electron system (eV)
  ---------------------------------------------------
  alpha Z        PSCENC =        30.28014394
  Ewald energy   TEWEN  =     14984.29168251
  -Hartree energ DENC   =    -16938.86341412
  -exchange      EXHF   =         0.00000000
  -V(xc)+E(xc)   XCENC  =        40.54558770
  PAW double counting   =      1677.12035881    -1579.18296132
  entropy T*S    EENTRO =        -0.00000000
  eigenvalues    EBANDS =      -390.95299887
  atomic energy  EATOM  =      2112.49373795
  Solvation  Ediel_sol  =         0.00000000
  ---------------------------------------------------
  free energy    TOTEN  =       -64.26786339 eV

  energy without entropy =      -64.26786339  energy(sigma->0) =      -64.26786339


--------------------------------------------------------------------------------------------------------




--------------------------------------- Iteration      1(   6)  ---------------------------------------


    POTLOK:  cpu time    0.0196: real time    0.0210
    SETDIJ:  cpu time    0.0661: real time    0.0661
     EDDAV:  cpu time    0.8907: real time    0.8921
       DOS:  cpu time    0.0005: real time    0.0005
    CHARGE:  cpu time    0.0426: real time    0.0426
    MIXING:  cpu time    0.0008: real time    0.0008
    --------------------------------------------
      LOOP:  cpu time    1.0203: real time    1.0230

 eigenvalue-minimisations  :  1624
 total energy-change (2. order) : 0.3367987E+00  (-0.2041754E-01)
 number of electron      59.9999987 magnetization 
 augmentation part       -6.4978717 magnetization 

 Broyden mixing:
  rms(total) = 0.10528E+01    rms(broyden)= 0.10528E+01
  rms(prec ) = 0.10560E+01
  weight for this iteration     100.00

 eigenvalues of (default mixing * dielectric matrix)
  average eigenvalue GAMMA=   2.4515
  2.4515

 Free energy of the ion-electron system (eV)
  ---------------------------------------------------
  alpha Z        PSCENC =        30.28014394
  Ewald energy   TEWEN  =     14984.29168251
  -Hartree energ DENC   =    -16949.47029252
  -exchange      EXHF   =         0.00000000
  -V(xc)+E(xc)   XCENC  =        41.60358234
  PAW double counting   =      3151.15053792    -3053.68129290
  entropy T*S    EENTRO =        -0.00000000
  eigenvalues    EBANDS =      -380.59916389
  atomic energy  EATOM  =      2112.49373795
  Solvation  Ediel_sol  =         0.00000000
  ---------------------------------------------------
  free energy    TOTEN  =       -63.93106465 eV

  energy without entropy =      -63.93106465  energy(sigma->0) =      -63.93106465


--------------------------------------------------------------------------------------------------------




--------------------------------------- Iteration      1(   7)  ---------------------------------------


    POTLOK:  cpu time    0.0202: real time    0.0214
    SETDIJ:  cpu time    0.0662: real time    0.0662
     EDDAV:  cpu time    0.8640: real time    0.8649
       DOS:  cpu time    0.0005: real time    0.0005
    CHARGE:  cpu time    0.0464: real time    0.0464
    MIXING:  cpu time    0.0008: real time    0.0008
    --------------------------------------------
      LOOP:  cpu time    0.9980: real time    1.0003

 eigenvalue-minimisations  :  1592
 total energy-change (2. order) : 0.1496604E+00  (-0.3855141E-01)
 number of electron      59.9999987 magnetization 
 augmentation part       -6.4489706 magnetization 

 Broyden mixing:
  rms(total) = 0.47520E-01    rms(broyden)= 0.47520E-01
  rms(prec ) = 0.48699E-01
  weight for this iteration     100.00

 eigenvalues of (default mixing * dielectric matrix)
  average eigenvalue GAMMA=   1.8674
  1.2295  2.5053

 Free energy of the ion-electron system (eV)
  ---------------------------------------------------
  alpha Z        PSCENC =        30.28014394
  Ewald energy   TEWEN  =     14984.29168251
  -Hartree energ DENC   =    -16968.26685946
  -exchange      EXHF   =         0.00000000
  -V(xc)+E(xc)   XCENC  =        43.31368503
  PAW double counting   =      6316.25905405    -6219.36369387
  entropy T*S    EENTRO =        -0.00000000
  eigenvalues    EBANDS =      -362.78915445
  atomic energy  EATOM  =      2112.49373795
  Solvation  Ediel_sol  =         0.00000000
  ---------------------------------------------------
  free energy    TOTEN  =       -63.78140429 eV

  energy without entropy =      -63.78140429  energy(sigma->0) =      -63.78140429


--------------------------------------------------------------------------------------------------------




--------------------------------------- Iteration      1(   8)  ---------------------------------------


    POTLOK:  cpu time    0.0189: real time    0.0207
    SETDIJ:  cpu time    0.0661: real time    0.0661
     EDDAV:  cpu time    0.8880: real time    0.8891
       DOS:  cpu time    0.0004: real time    0.0004
    CHARGE:  cpu time    0.0444: real time    0.0444
    MIXING:  cpu time    0.0007: real time    0.0007
    --------------------------------------------
      LOOP:  cpu time    1.0186: real time    1.0215

 eigenvalue-minimisations  :  1632
 total energy-change (2. order) :-0.1013756E-02  (-0.3005703E-02)
 number of electron      59.9999987 magnetization 
 augmentation part       -6.4574033 magnetization 

 Broyden mixing:
  rms(total) = 0.27385E-01    rms(broyden)= 0.27385E-01
  rms(prec ) = 0.28108E-01
  weight for this iteration     100.00

 eigenvalues of (default mixing * dielectric matrix)
  average eigenvalue GAMMA=   1.5742
  2.5252  1.0987  1.0987

 Free energy of the ion-electron system (eV)
  ---------------------------------------------------
  alpha Z        PSCENC =        30.28014394
  Ewald energy   TEWEN  =     14984.29168251
  -Hartree energ DENC   =    -16968.91484373
  -exchange      EXHF   =         0.00000000
  -V(xc)+E(xc)   XCENC  =        43.34319202
  PAW double counting   =      6414.77201881    -6317.81748916
  entropy T*S    EENTRO =        -0.00000000
  eigenvalues    EBANDS =      -362.23086038
  atomic energy  EATOM  =      2112.49373795
  Solvation  Ediel_sol  =         0.00000000
  ---------------------------------------------------
  free energy    TOTEN  =       -63.78241805 eV

  energy without entropy =      -63.78241805  energy(sigma->0) =      -63.78241805


--------------------------------------------------------------------------------------------------------




--------------------------------------- Iteration      1(   9)  ---------------------------------------


    POTLOK:  cpu time    0.0212: real time    0.0213
    SETDIJ:  cpu time    0.0659: real time    0.0661
     EDDAV:  cpu time    1.0193: real time    1.0309
       DOS:  cpu time    0.0005: real time    0.0005
    CHARGE:  cpu time    0.0598: real time    0.0598
    MIXING:  cpu time    0.0007: real time    0.0007
    --------------------------------------------
      LOOP:  cpu time    1.1675: real time    1.1793

 eigenvalue-minimisations  :  1920
 total energy-change (2. order) : 0.4159528E-04  (-0.1999655E-03)
 number of electron      59.9999987 magnetization 
 augmentation part       -6.4587900 magnetization 

 Broyden mixing:
  rms(total) = 0.20336E-01    rms(broyden)= 0.20336E-01
  rms(prec ) = 0.20914E-01
  weight for this iteration     100.00

 eigenvalues of (default mixing * dielectric matrix)
  average eigenvalue GAMMA=   1.6512
  0.9579  2.2196  1.7137  1.7137

 Free energy of the ion-electron system (eV)
  ---------------------------------------------------
  alpha Z        PSCENC =        30.28014394
  Ewald energy   TEWEN  =     14984.29168251
  -Hartree energ DENC   =    -16969.73848190
  -exchange      EXHF   =         0.00000000
  -V(xc)+E(xc)   XCENC  =        43.35718785
  PAW double counting   =      6433.63501784    -6336.66134496
  entropy T*S    EENTRO =        -0.00000000
  eigenvalues    EBANDS =      -361.44031969
  atomic energy  EATOM  =      2112.49373795
  Solvation  Ediel_sol  =         0.00000000
  ---------------------------------------------------
  free energy    TOTEN  =       -63.78237645 eV

  energy without entropy =      -63.78237645  energy(sigma->0) =      -63.78237645


--------------------------------------------------------------------------------------------------------




--------------------------------------- Iteration      1(  10)  ---------------------------------------


    POTLOK:  cpu time    0.0196: real time    0.0209
    SETDIJ:  cpu time    0.0661: real time    0.0661
     EDDAV:  cpu time    0.8588: real time    0.8599
       DOS:  cpu time    0.0005: real time    0.0005
    CHARGE:  cpu time    0.0479: real time    0.0479
    MIXING:  cpu time    0.0007: real time    0.0007
    --------------------------------------------
      LOOP:  cpu time    0.9937: real time    0.9960

 eigenvalue-minimisations  :  1560
 total energy-change (2. order) : 0.1772223E-03  (-0.5976643E-04)
 number of electron      59.9999987 magnetization 
 augmentation part       -6.4601587 magnetization 

 Broyden mixing:
  rms(total) = 0.92767E-02    rms(broyden)= 0.92767E-02
  rms(prec ) = 0.98670E-02
  weight for this iteration     100.00

 eigenvalues of (default mixing * dielectric matrix)
  average eigenvalue GAMMA=   1.6724
  2.4836  2.4836  0.9351  1.2300  1.2300

 Free energy of the ion-electron system (eV)
  ---------------------------------------------------
  alpha Z        PSCENC =        30.28014394
  Ewald energy   TEWEN  =     14984.29168251
  -Hartree energ DENC   =    -16970.97229399
  -exchange      EXHF   =         0.00000000
  -V(xc)+E(xc)   XCENC  =        43.34668714
  PAW double counting   =      6367.36260657    -6270.35796911
  entropy T*S    EENTRO =        -0.00000000
  eigenvalues    EBANDS =      -360.22679424
  atomic energy  EATOM  =      2112.49373795
  Solvation  Ediel_sol  =         0.00000000
  ---------------------------------------------------
  free energy    TOTEN  =       -63.78219923 eV

  energy without entropy =      -63.78219923  energy(sigma->0) =      -63.78219923


--------------------------------------------------------------------------------------------------------




--------------------------------------- Iteration      1(  11)  ---------------------------------------


    POTLOK:  cpu time    0.0195: real time    0.0207
    SETDIJ:  cpu time    0.0661: real time    0.0661
     EDDAV:  cpu time    0.9026: real time    0.9036
       DOS:  cpu time    0.0005: real time    0.0005
    CHARGE:  cpu time    0.0428: real time    0.0428
    MIXING:  cpu time    0.0008: real time    0.0008
    --------------------------------------------
      LOOP:  cpu time    1.0323: real time    1.0345

 eigenvalue-minimisations  :  1672
 total energy-change (2. order) : 0.9971073E-04  (-0.2669866E-04)
 number of electron      59.9999987 magnetization 
 augmentation part       -6.4601452 magnetization 

 Broyden mixing:
  rms(total) = 0.37879E-02    rms(broyden)= 0.37879E-02
  rms(prec ) = 0.44330E-02
  weight for this iteration     100.00

 eigenvalues of (default mixing * dielectric matrix)
  average eigenvalue GAMMA=   1.4772
  2.4877  2.4877  1.2398  1.2398  0.8915  0.5166

 Free energy of the ion-electron system (eV)
  ---------------------------------------------------
  alpha Z        PSCENC =        30.28014394
  Ewald energy   TEWEN  =     14984.29168251
  -Hartree energ DENC   =    -16972.28806401
  -exchange      EXHF   =         0.00000000
  -V(xc)+E(xc)   XCENC  =        43.37327661
  PAW double counting   =      6394.44679844    -6297.43478090
  entropy T*S    EENTRO =        -0.00000000
  eigenvalues    EBANDS =      -358.94489406
  atomic energy  EATOM  =      2112.49373795
  Solvation  Ediel_sol  =         0.00000000
  ---------------------------------------------------
  free energy    TOTEN  =       -63.78209952 eV

  energy without entropy =      -63.78209952  energy(sigma->0) =      -63.78209952


--------------------------------------------------------------------------------------------------------




--------------------------------------- Iteration      1(  12)  ---------------------------------------


    POTLOK:  cpu time    0.0201: real time    0.0218
    SETDIJ:  cpu time    0.0661: real time    0.0661
     EDDAV:  cpu time    0.8475: real time    0.8485
       DOS:  cpu time    0.0005: real time    0.0005
    CHARGE:  cpu time    0.0464: real time    0.0464
    MIXING:  cpu time    0.0008: real time    0.0008
    --------------------------------------------
      LOOP:  cpu time    0.9813: real time    0.9840

 eigenvalue-minimisations  :  1536
 total energy-change (2. order) :-0.5615758E-04  (-0.3341109E-05)
 number of electron      59.9999987 magnetization 
 augmentation part       -6.4600723 magnetization 

 Broyden mixing:
  rms(total) = 0.19519E-02    rms(broyden)= 0.19519E-02
  rms(prec ) = 0.27459E-02
  weight for this iteration     100.00

 eigenvalues of (default mixing * dielectric matrix)
  average eigenvalue GAMMA=   1.6923
  2.7624  2.4798  1.8245  1.8245  1.0268  0.9640  0.9640

 Free energy of the ion-electron system (eV)
  ---------------------------------------------------
  alpha Z        PSCENC =        30.28014394
  Ewald energy   TEWEN  =     14984.29168251
  -Hartree energ DENC   =    -16972.80752463
  -exchange      EXHF   =         0.00000000
  -V(xc)+E(xc)   XCENC  =        43.37522727
  PAW double counting   =      6387.72977306    -6290.71752047
  entropy T*S    EENTRO =        -0.00000000
  eigenvalues    EBANDS =      -358.42767530
  atomic energy  EATOM  =      2112.49373795
  Solvation  Ediel_sol  =         0.00000000
  ---------------------------------------------------
  free energy    TOTEN  =       -63.78215568 eV

  energy without entropy =      -63.78215568  energy(sigma->0) =      -63.78215568


--------------------------------------------------------------------------------------------------------




--------------------------------------- Iteration      1(  13)  ---------------------------------------


    POTLOK:  cpu time    0.0197: real time    0.0213
    SETDIJ:  cpu time    0.0660: real time    0.0660
     EDDAV:  cpu time    0.8525: real time    0.8552
       DOS:  cpu time    0.0005: real time    0.0005
    CHARGE:  cpu time    0.0417: real time    0.0432
    MIXING:  cpu time    0.0008: real time    0.0008
    --------------------------------------------
      LOOP:  cpu time    0.9812: real time    0.9869

 eigenvalue-minimisations  :  1544
 total energy-change (2. order) :-0.1599593E-03  (-0.1184141E-04)
 number of electron      59.9999987 magnetization 
 augmentation part       -6.4597077 magnetization 

 Broyden mixing:
  rms(total) = 0.16294E-02    rms(broyden)= 0.16294E-02
  rms(prec ) = 0.19122E-02
  weight for this iteration     100.00

 eigenvalues of (default mixing * dielectric matrix)
  average eigenvalue GAMMA=   1.6970
  3.5561  2.5244  2.1655  1.4581  1.0451  1.0451  0.8907  0.8907

 Free energy of the ion-electron system (eV)
  ---------------------------------------------------
  alpha Z        PSCENC =        30.28014394
  Ewald energy   TEWEN  =     14984.29168251
  -Hartree energ DENC   =    -16974.25569036
  -exchange      EXHF   =         0.00000000
  -V(xc)+E(xc)   XCENC  =        43.38729466
  PAW double counting   =      6384.34089135    -6287.32878929
  entropy T*S    EENTRO =        -0.00000000
  eigenvalues    EBANDS =      -356.99158639
  atomic energy  EATOM  =      2112.49373795
  Solvation  Ediel_sol  =         0.00000000
  ---------------------------------------------------
  free energy    TOTEN  =       -63.78231564 eV

  energy without entropy =      -63.78231564  energy(sigma->0) =      -63.78231564


--------------------------------------------------------------------------------------------------------




--------------------------------------- Iteration      1(  14)  ---------------------------------------


    POTLOK:  cpu time    0.0193: real time    0.0209
    SETDIJ:  cpu time    0.0660: real time    0.0660
     EDDAV:  cpu time    0.7684: real time    0.7694
       DOS:  cpu time    0.0005: real time    0.0005
    CHARGE:  cpu time    0.0429: real time    0.0429
    MIXING:  cpu time    0.0009: real time    0.0009
    --------------------------------------------
      LOOP:  cpu time    0.8980: real time    0.9005

 eigenvalue-minimisations  :  1304
 total energy-change (2. order) :-0.1180521E-03  (-0.2630750E-05)
 number of electron      59.9999987 magnetization 
 augmentation part       -6.4595575 magnetization 

 Broyden mixing:
  rms(total) = 0.20360E-02    rms(broyden)= 0.20360E-02
  rms(prec ) = 0.21432E-02
  weight for this iteration     100.00

 eigenvalues of (default mixing * dielectric matrix)
  average eigenvalue GAMMA=   1.6539
  3.6445  2.4202  2.2140  1.2789  1.2789  1.1347  1.1347  0.9875  0.7915

 Free energy of the ion-electron system (eV)
  ---------------------------------------------------
  alpha Z        PSCENC =        30.28014394
  Ewald energy   TEWEN  =     14984.29168251
  -Hartree energ DENC   =    -16974.82130887
  -exchange      EXHF   =         0.00000000
  -V(xc)+E(xc)   XCENC  =        43.39005765
  PAW double counting   =      6381.71483059    -6284.70273773
  entropy T*S    EENTRO =        -0.00000000
  eigenvalues    EBANDS =      -356.42883972
  atomic energy  EATOM  =      2112.49373795
  Solvation  Ediel_sol  =         0.00000000
  ---------------------------------------------------
  free energy    TOTEN  =       -63.78243369 eV

  energy without entropy =      -63.78243369  energy(sigma->0) =      -63.78243369


--------------------------------------------------------------------------------------------------------




--------------------------------------- Iteration      1(  15)  ---------------------------------------


    POTLOK:  cpu time    0.0193: real time    0.0210
    SETDIJ:  cpu time    0.0662: real time    0.0662
     EDDAV:  cpu time    0.6903: real time    0.6914
       DOS:  cpu time    0.0005: real time    0.0005
    CHARGE:  cpu time    0.0438: real time    0.0438
    MIXING:  cpu time    0.0010: real time    0.0010
    --------------------------------------------
      LOOP:  cpu time    0.8211: real time    0.8239

 eigenvalue-minimisations  :  1096
 total energy-change (2. order) :-0.1481349E-03  (-0.7549630E-06)
 number of electron      59.9999987 magnetization 
 augmentation part       -6.4595669 magnetization 

 Broyden mixing:
  rms(total) = 0.55656E-03    rms(broyden)= 0.55656E-03
  rms(prec ) = 0.70268E-03
  weight for this iteration     100.00

 eigenvalues of (default mixing * dielectric matrix)
  average eigenvalue GAMMA=   1.9779
  5.9085  2.8163  2.6123  1.7699  1.7699  1.1151  1.1151  0.9382  0.8669  0.8669

 Free energy of the ion-electron system (eV)
  ---------------------------------------------------
  alpha Z        PSCENC =        30.28014394
  Ewald energy   TEWEN  =     14984.29168251
  -Hartree energ DENC   =    -16975.18042315
  -exchange      EXHF   =         0.00000000
  -V(xc)+E(xc)   XCENC  =        43.39114190
  PAW double counting   =      6385.27901360    -6288.26675855
  entropy T*S    EENTRO =        -0.00000000
  eigenvalues    EBANDS =      -356.07112001
  atomic energy  EATOM  =      2112.49373795
  Solvation  Ediel_sol  =         0.00000000
  ---------------------------------------------------
  free energy    TOTEN  =       -63.78258182 eV

  energy without entropy =      -63.78258182  energy(sigma->0) =      -63.78258182


--------------------------------------------------------------------------------------------------------




--------------------------------------- Iteration      1(  16)  ---------------------------------------


    POTLOK:  cpu time    0.0196: real time    0.0214
    SETDIJ:  cpu time    0.0661: real time    0.0661
     EDDAV:  cpu time    0.7233: real time    0.7243
       DOS:  cpu time    0.0005: real time    0.0005
    CHARGE:  cpu time    0.0433: real time    0.0434
    MIXING:  cpu time    0.0011: real time    0.0011
    --------------------------------------------
      LOOP:  cpu time    0.8538: real time    0.8567

 eigenvalue-minimisations  :  1200
 total energy-change (2. order) :-0.1511344E-03  (-0.1674820E-05)
 number of electron      59.9999987 magnetization 
 augmentation part       -6.4595243 magnetization 

 Broyden mixing:
  rms(total) = 0.93777E-03    rms(broyden)= 0.93777E-03
  rms(prec ) = 0.95106E-03
  weight for this iteration     100.00

 eigenvalues of (default mixing * dielectric matrix)
  average eigenvalue GAMMA=   1.9747
  6.4933  2.6628  2.6628  2.0413  1.3321  1.3321  1.4099  1.0216  1.0216  0.8721
  0.8721

 Free energy of the ion-electron system (eV)
  ---------------------------------------------------
  alpha Z        PSCENC =        30.28014394
  Ewald energy   TEWEN  =     14984.29168251
  -Hartree energ DENC   =    -16975.66487057
  -exchange      EXHF   =         0.00000000
  -V(xc)+E(xc)   XCENC  =        43.39185711
  PAW double counting   =      6386.70184267    -6289.68951673
  entropy T*S    EENTRO =        -0.00000000
  eigenvalues    EBANDS =      -355.58760983
  atomic energy  EATOM  =      2112.49373795
  Solvation  Ediel_sol  =         0.00000000
  ---------------------------------------------------
  free energy    TOTEN  =       -63.78273296 eV

  energy without entropy =      -63.78273296  energy(sigma->0) =      -63.78273296


--------------------------------------------------------------------------------------------------------




--------------------------------------- Iteration      1(  17)  ---------------------------------------


    POTLOK:  cpu time    0.0211: real time    0.0212
    SETDIJ:  cpu time    0.0661: real time    0.0661
     EDDAV:  cpu time    0.6872: real time    0.6883
       DOS:  cpu time    0.0005: real time    0.0005
    CHARGE:  cpu time    0.0456: real time    0.0456
    MIXING:  cpu time    0.0011: real time    0.0011
    --------------------------------------------
      LOOP:  cpu time    0.8215: real time    0.8227

 eigenvalue-minimisations  :  1056
 total energy-change (2. order) :-0.3290849E-04  (-0.1197385E-06)
 number of electron      59.9999987 magnetization 
 augmentation part       -6.4595286 magnetization 

 Broyden mixing:
  rms(total) = 0.32245E-03    rms(broyden)= 0.32245E-03
  rms(prec ) = 0.33925E-03
  weight for this iteration     100.00

 eigenvalues of (default mixing * dielectric matrix)
  average eigenvalue GAMMA=   2.0936
  7.4193  3.3043  2.5562  2.2903  1.6937  1.6937  1.4864  1.0284  1.0284  0.8911
  0.8654  0.8654

 Free energy of the ion-electron system (eV)
  ---------------------------------------------------
  alpha Z        PSCENC =        30.28014394
  Ewald energy   TEWEN  =     14984.29168251
  -Hartree energ DENC   =    -16975.72465986
  -exchange      EXHF   =         0.00000000
  -V(xc)+E(xc)   XCENC  =        43.39158001
  PAW double counting   =      6385.92536076    -6288.91272341
  entropy T*S    EENTRO =        -0.00000000
  eigenvalues    EBANDS =      -355.52788776
  atomic energy  EATOM  =      2112.49373795
  Solvation  Ediel_sol  =         0.00000000
  ---------------------------------------------------
  free energy    TOTEN  =       -63.78276587 eV

  energy without entropy =      -63.78276587  energy(sigma->0) =      -63.78276587


--------------------------------------------------------------------------------------------------------




--------------------------------------- Iteration      1(  18)  ---------------------------------------


    POTLOK:  cpu time    0.0204: real time    0.0217
    SETDIJ:  cpu time    0.0660: real time    0.0660
     EDDAV:  cpu time    0.6811: real time    0.6821
       DOS:  cpu time    0.0005: real time    0.0005
    CHARGE:  cpu time    0.0437: real time    0.0437
    MIXING:  cpu time    0.0011: real time    0.0011
    --------------------------------------------
      LOOP:  cpu time    0.8127: real time    0.8151

 eigenvalue-minimisations  :  1088
 total energy-change (2. order) :-0.3763919E-04  (-0.1070865E-06)
 number of electron      59.9999987 magnetization 
 augmentation part       -6.4595414 magnetization 

 Broyden mixing:
  rms(total) = 0.16884E-03    rms(broyden)= 0.16884E-03
  rms(prec ) = 0.17622E-03
  weight for this iteration     100.00

 eigenvalues of (default mixing * dielectric matrix)
  average eigenvalue GAMMA=   2.0391
  7.6057  3.3250  2.4328  2.4328  1.5624  1.5624  1.3923  1.3923  1.0535  1.0535
  0.9273  0.8843  0.8843

 Free energy of the ion-electron system (eV)
  ---------------------------------------------------
  alpha Z        PSCENC =        30.28014394
  Ewald energy   TEWEN  =     14984.29168251
  -Hartree energ DENC   =    -16975.77073272
  -exchange      EXHF   =         0.00000000
  -V(xc)+E(xc)   XCENC  =        43.39121395
  PAW double counting   =      6385.57784934    -6288.56518912
  entropy T*S    EENTRO =        -0.00000000
  eigenvalues    EBANDS =      -355.48150934
  atomic energy  EATOM  =      2112.49373795
  Solvation  Ediel_sol  =         0.00000000
  ---------------------------------------------------
  free energy    TOTEN  =       -63.78280350 eV

  energy without entropy =      -63.78280350  energy(sigma->0) =      -63.78280350


--------------------------------------------------------------------------------------------------------




--------------------------------------- Iteration      1(  19)  ---------------------------------------


    POTLOK:  cpu time    0.0197: real time    0.0212
    SETDIJ:  cpu time    0.0660: real time    0.0660
     EDDAV:  cpu time    0.6588: real time    0.9028
       DOS:  cpu time    0.0005: real time    0.0005
    --------------------------------------------
      LOOP:  cpu time    0.8293: real time    1.0748

 eigenvalue-minimisations  :   976
 total energy-change (2. order) :-0.8356810E-05  (-0.1548500E-07)
 number of electron      59.9999987 magnetization 
 augmentation part       -6.4595414 magnetization 

 Free energy of the ion-electron system (eV)
  ---------------------------------------------------
  alpha Z        PSCENC =        30.28014394
  Ewald energy   TEWEN  =     14984.29168251
  -Hartree energ DENC   =    -16975.77541355
  -exchange      EXHF   =         0.00000000
  -V(xc)+E(xc)   XCENC  =        43.39115868
  PAW double counting   =      6385.28435668    -6288.27173437
  entropy T*S    EENTRO =        -0.00000000
  eigenvalues    EBANDS =      -355.47674369
  atomic energy  EATOM  =      2112.49373795
  Solvation  Ediel_sol  =         0.00000000
  ---------------------------------------------------
  free energy    TOTEN  =       -63.78281186 eV

  energy without entropy =      -63.78281186  energy(sigma->0) =      -63.78281186


--------------------------------------------------------------------------------------------------------




 the core state eigenenergies are
   1-  1s  -2078.4029  2s   -168.4311  2p   -118.9169
   2-  1s  -2078.4029  2s   -168.4311  2p   -118.9169
   3-  1s  -2078.4763  2s   -168.5109  2p   -118.9964
   4-  1s  -2078.4763  2s   -168.5109  2p   -118.9964
   5-  1s  -2078.5114  2s   -168.5467  2p   -119.0321
   6-  1s  -2078.5114  2s   -168.5467  2p   -119.0321
   7-  1s  -2078.5114  2s   -168.5467  2p   -119.0321
   8-  1s  -2078.5114  2s   -168.5467  2p   -119.0321
   9-  1s  -2078.4763  2s   -168.5109  2p   -118.9964
  10-  1s  -2078.4763  2s   -168.5109  2p   -118.9964
  11-  1s  -2078.4029  2s   -168.4311  2p   -118.9169
  12-  1s  -2078.4029  2s   -168.4311  2p   -118.9169
 
 E-fermi :   0.6354     XC(G=0):  -5.0975     alpha+bet : -5.5572


 k-point     1 :       0.0000    0.0000    0.0000
  band No.  band energies     occupation 
      1     -14.9566      2.00000
      2     -14.7795      2.00000
      3     -14.6838      2.00000
      4     -12.5643      2.00000
      5     -12.1871      2.00000
      6     -11.9336      2.00000
      7      -8.6864      2.00000
      8      -8.5541      2.00000
      9      -8.4986      2.00000
     10      -6.3021      2.00000
     11      -5.6081      2.00000
     12      -4.8723      2.00000
     13      -4.7859      2.00000
     14      -4.6012      2.00000
     15      -4.2781      2.00000
     16      -4.2148      2.00000
     17      -3.9882      2.00000
     18      -3.8219      2.00000
     19      -3.4902      2.00000
     20      -3.3373      2.00000
     21      -3.2659      2.00000
     22      -2.0703      2.00000
     23      -1.8638      2.00000
     24      -1.6323      2.00000
     25      -1.5255      2.00000
     26      -1.5181      2.00000
     27      -0.8992      2.00000
     28      -0.5913      2.00000
     29       0.1363      2.00000
     30       0.3199      2.00000
     31       1.0433      0.00000
     32       1.3349      0.00000
     33       1.3432      0.00000
     34       1.5960      0.00000
     35       2.0072      0.00000
     36       2.5495      0.00000
     37       2.5958      0.00000
     38       2.8819      0.00000
     39       3.0352      0.00000
     40       3.6271      0.00000

 k-point     2 :       0.1429    0.0000    0.0000
  band No.  band energies     occupation 
      1     -14.7188      2.00000
      2     -14.5424      2.00000
      3     -14.4474      2.00000
      4     -12.3179      2.00000
      5     -11.9409      2.00000
      6     -11.6873      2.00000
      7      -8.9111      2.00000
      8      -8.7759      2.00000
      9      -8.7186      2.00000
     10      -6.0999      2.00000
     11      -5.4134      2.00000
     12      -5.2069      2.00000
     13      -4.7393      2.00000
     14      -4.6979      2.00000
     15      -4.3982      2.00000
     16      -4.3974      2.00000
     17      -4.3352      2.00000
     18      -4.2373      2.00000
     19      -4.1596      2.00000
     20      -4.0189      2.00000
     21      -3.7842      2.00000
     22      -2.7006      2.00000
     23      -2.4272      2.00000
     24      -2.2362      2.00000
     25      -1.9636      2.00000
     26      -1.4214      2.00000
     27      -0.7950      2.00000
     28      -0.7526      2.00000
     29       0.1848      2.00000
     30       0.3623      2.00000
     31       1.0614      0.00000
     32       1.5449      0.00000
     33       2.4928      0.00000
     34       2.6176      0.00000
     35       2.7834      0.00000
     36       2.8767      0.00000
     37       3.0750      0.00000
     38       3.2831      0.00000
     39       3.5358      0.00000
     40       3.9572      0.00000

 k-point     3 :       0.2857    0.0000    0.0000
  band No.  band energies     occupation 
      1     -14.0146      2.00000
      2     -13.8403      2.00000
      3     -13.7475      2.00000
      4     -11.5839      2.00000
      5     -11.2071      2.00000
      6     -10.9530      2.00000
      7      -9.8747      2.00000
      8      -9.7261      2.00000
      9      -9.6582      2.00000
     10      -6.8324      2.00000
     11      -6.4320      2.00000
     12      -6.1364      2.00000
     13      -5.5312      2.00000
     14      -5.0718      2.00000
     15      -4.9029      2.00000
     16      -4.8816      2.00000
     17      -4.8248      2.00000
     18      -4.2611      2.00000
     19      -3.8327      2.00000
     20      -3.4826      2.00000
     21      -3.2141      2.00000
     22      -2.9171      2.00000
     23      -2.5993      2.00000
     24      -2.2687      2.00000
     25      -1.9166      2.00000
     26      -1.3879      2.00000
     27      -1.3515      2.00000
     28      -0.7848      2.00000
     29      -0.4385      2.00000
     30       0.4375      2.00000
     31       1.0188      0.00000
     32       1.1547      0.00000
     33       1.4422      0.00000
     34       1.6475      0.00000
     35       2.2041      0.00000
     36       2.6971      0.00000
     37       3.0344      0.00000
     38       3.1002      0.00000
     39       3.3085      0.00000
     40       3.3366      0.00000

 k-point     4 :       0.4286    0.0000    0.0000
  band No.  band energies     occupation 
      1     -12.8785      2.00000
      2     -12.7084      2.00000
      3     -12.6200      2.00000
      4     -11.4050      2.00000
      5     -11.2427      2.00000
      6     -11.1622      2.00000
      7     -10.3800      2.00000
      8     -10.0026      2.00000
      9      -9.7463      2.00000
     10      -8.7507      2.00000
     11      -8.3691      2.00000
     12      -8.1049      2.00000
     13      -4.8207      2.00000
     14      -4.7980      2.00000
     15      -4.5895      2.00000
     16      -4.4898      2.00000
     17      -4.3407      2.00000
     18      -4.0209      2.00000
     19      -3.1494      2.00000
     20      -2.9396      2.00000
     21      -2.7558      2.00000
     22      -2.6745      2.00000
     23      -2.4892      2.00000
     24      -2.2850      2.00000
     25      -2.0741      2.00000
     26      -1.9949      2.00000
     27      -1.7052      2.00000
     28      -1.3036      2.00000
     29      -1.0747      2.00000
     30      -0.5335      2.00000
     31       1.3179      0.00000
     32       1.3369      0.00000
     33       1.4648      0.00000
     34       1.7221      0.00000
     35       1.7324      0.00000
     36       1.9083      0.00000
     37       2.0664      0.00000
     38       2.0898      0.00000
     39       2.2349      0.00000
     40       2.3333      0.00000

 k-point     5 :       0.0000    0.0000    0.1667
  band No.  band energies     occupation 
      1     -14.8059      2.00000
      2     -14.6271      2.00000
      3     -14.5284      2.00000
      4     -12.6631      2.00000
      5     -12.3206      2.00000
      6     -12.1053      2.00000
      7      -8.9767      2.00000
      8      -8.7809      2.00000
      9      -8.6521      2.00000
     10      -6.7166      2.00000
     11      -6.1551      2.00000
     12      -5.6807      2.00000
     13      -4.9498      2.00000
     14      -4.3486      2.00000
     15      -3.7972      2.00000
     16      -3.7067      2.00000
     17      -3.3714      2.00000
     18      -3.3049      2.00000
     19      -3.2230      2.00000
     20      -3.2175      2.00000
     21      -3.1436      2.00000
     22      -1.9232      2.00000
     23      -1.7025      2.00000
     24      -1.5988      2.00000
     25      -1.5973      2.00000
     26      -1.3253      2.00000
     27      -0.7251      2.00000
     28      -0.6212      2.00000
     29      -0.0856      2.00000
     30       0.4451      2.00000
     31       0.8641      0.00000
     32       1.5767      0.00000
     33       1.6936      0.00000
     34       2.0242      0.00000
     35       2.0419      0.00000
     36       2.3483      0.00000
     37       2.5474      0.00000
     38       2.7439      0.00000
     39       3.3586      0.00000
     40       3.3869      0.00000

 k-point     6 :       0.1429    0.0000    0.1667
  band No.  band energies     occupation 
      1     -14.5696      2.00000
      2     -14.3914      2.00000
      3     -14.2935      2.00000
      4     -12.4235      2.00000
      5     -12.0831      2.00000
      6     -11.8699      2.00000
      7      -9.0739      2.00000
      8      -8.8822      2.00000
      9      -8.7606      2.00000
     10      -6.6148      2.00000
     11      -6.0860      2.00000
     12      -5.6427      2.00000
     13      -5.0576      2.00000
     14      -4.8620      2.00000
     15      -4.6013      2.00000
     16      -4.4993      2.00000
     17      -4.3045      2.00000
     18      -3.6744      2.00000
     19      -3.2636      2.00000
     20      -3.0806      2.00000
     21      -2.9707      2.00000
     22      -2.8438      2.00000
     23      -2.7023      2.00000
     24      -2.4777      2.00000
     25      -1.5880      2.00000
     26      -1.3661      2.00000
     27      -0.7931      2.00000
     28      -0.6341      2.00000
     29      -0.1677      2.00000
     30       0.4661      2.00000
     31       0.9959      0.00000
     32       2.1000      0.00000
     33       2.3916      0.00000
     34       2.6000      0.00000
     35       2.7675      0.00000
     36       3.1557      0.00000
     37       3.3632      0.00000
     38       3.3818      0.00000
     39       3.5944      0.00000
     40       3.9827      0.00000

 k-point     7 :       0.2857    0.0000    0.1667
  band No.  band energies     occupation 
      1     -13.8712      2.00000
      2     -13.6954      2.00000
      3     -13.6000      2.00000
      4     -11.7298      2.00000
      5     -11.4037      2.00000
      6     -11.2056      2.00000
      7      -9.7495      2.00000
      8      -9.5534      2.00000
      9      -9.4327      2.00000
     10      -7.1164      2.00000
     11      -6.7216      2.00000
     12      -6.4270      2.00000
     13      -5.6638      2.00000
     14      -5.4962      2.00000
     15      -5.3322      2.00000
     16      -5.2926      2.00000
     17      -4.7703      2.00000
     18      -4.2888      2.00000
     19      -3.4640      2.00000
     20      -3.1571      2.00000
     21      -2.8881      2.00000
     22      -2.7607      2.00000
     23      -2.5629      2.00000
     24      -2.4377      2.00000
     25      -2.0003      2.00000
     26      -1.7832      2.00000
     27      -1.3388      2.00000
     28      -0.9851      2.00000
     29      -0.5721      2.00000
     30       0.2288      2.00000
     31       1.2922      0.00000
     32       1.8625      0.00000
     33       2.1014      0.00000
     34       2.2928      0.00000
     35       2.3223      0.00000
     36       2.4835      0.00000
     37       2.5958      0.00000
     38       2.8660      0.00000
     39       3.5193      0.00000
     40       3.5586      0.00000

 k-point     8 :       0.4286    0.0000    0.1667
  band No.  band energies     occupation 
      1     -12.7548      2.00000
      2     -12.5840      2.00000
      3     -12.4939      2.00000
      4     -11.4181      2.00000
      5     -11.2489      2.00000
      6     -11.1653      2.00000
      7     -10.2998      2.00000
      8      -9.9430      2.00000
      9      -9.7050      2.00000
     10      -8.8200      2.00000
     11      -8.4555      2.00000
     12      -8.2103      2.00000
     13      -5.2835      2.00000
     14      -5.0728      2.00000
     15      -4.8907      2.00000
     16      -4.8552      2.00000
     17      -4.4318      2.00000
     18      -4.1476      2.00000
     19      -3.6150      2.00000
     20      -3.3666      2.00000
     21      -3.2295      2.00000
     22      -2.9478      2.00000
     23      -2.8763      2.00000
     24      -2.4904      2.00000
     25      -2.2219      2.00000
     26      -1.8316      2.00000
     27      -1.5016      2.00000
     28      -1.0486      2.00000
     29      -0.7587      2.00000
     30      -0.2253      2.00000
     31       1.1516      0.00000
     32       1.5850      0.00000
     33       1.7425      0.00000
     34       1.9123      0.00000
     35       2.0000      0.00000
     36       2.2349      0.00000
     37       2.3735      0.00000
     38       2.6004      0.00000
     39       2.9860      0.00000
     40       3.0381      0.00000

 k-point     9 :       0.0000    0.0000    0.3333
  band No.  band energies     occupation 
      1     -14.3771      2.00000
      2     -14.1934      2.00000
      3     -14.0795      2.00000
      4     -13.0496      2.00000
      5     -12.7873      2.00000
      6     -12.6498      2.00000
      7      -9.1506      2.00000
      8      -8.8416      2.00000
      9      -8.5957      2.00000
     10      -7.7576      2.00000
     11      -7.3117      2.00000
     12      -6.9439      2.00000
     13      -4.6007      2.00000
     14      -3.7441      2.00000
     15      -3.0443      2.00000
     16      -2.8895      2.00000
     17      -2.8105      2.00000
     18      -2.8019      2.00000
     19      -2.7722      2.00000
     20      -2.4128      2.00000
     21      -2.1425      2.00000
     22      -2.0977      2.00000
     23      -1.9850      2.00000
     24      -1.9513      2.00000
     25      -1.8745      2.00000
     26      -1.7962      2.00000
     27      -0.7502      2.00000
     28      -0.1636      2.00000
     29       0.3154      2.00000
     30       0.5854      2.00000
     31       1.3867      0.00000
     32       1.5202      0.00000
     33       2.0412      0.00000
     34       2.1790      0.00000
     35       2.3068      0.00000
     36       2.4158      0.00000
     37       2.5170      0.00000
     38       3.0790      0.00000
     39       3.1917      0.00000
     40       3.2807      0.00000

 k-point    10 :       0.1429    0.0000    0.3333
  band No.  band energies     occupation 
      1     -14.1447      2.00000
      2     -13.9620      2.00000
      3     -13.8492      2.00000
      4     -12.8220      2.00000
      5     -12.5628      2.00000
      6     -12.4276      2.00000
      7      -9.1044      2.00000
      8      -8.8017      2.00000
      9      -8.5667      2.00000
     10      -7.6589      2.00000
     11      -7.2223      2.00000
     12      -6.8662      2.00000
     13      -4.6646      2.00000
     14      -4.5884      2.00000
     15      -4.4114      2.00000
     16      -4.3255      2.00000
     17      -3.7550      2.00000
     18      -3.5088      2.00000
     19      -3.3299      2.00000
     20      -3.1941      2.00000
     21      -2.6653      2.00000
     22      -2.6153      2.00000
     23      -1.8784      2.00000
     24      -1.8422      2.00000
     25      -1.5132      2.00000
     26      -1.4957      2.00000
     27      -0.7258      2.00000
     28      -0.7182      2.00000
     29      -0.1224      2.00000
     30       0.0452      2.00000
     31       1.9199      0.00000
     32       2.7510      0.00000
     33       2.7689      0.00000
     34       3.0395      0.00000
     35       3.1979      0.00000
     36       3.2256      0.00000
     37       3.3114      0.00000
     38       3.4868      0.00000
     39       3.5345      0.00000
     40       3.6914      0.00000

 k-point    11 :       0.2857    0.0000    0.3333
  band No.  band energies     occupation 
      1     -13.4637      2.00000
      2     -13.2841      2.00000
      3     -13.1755      2.00000
      4     -12.1786      2.00000
      5     -11.9343      2.00000
      6     -11.8104      2.00000
      7      -9.3415      2.00000
      8      -9.0631      2.00000
      9      -8.8678      2.00000
     10      -7.8226      2.00000
     11      -7.4504      2.00000
     12      -7.1769      2.00000
     13      -5.9859      2.00000
     14      -5.7366      2.00000
     15      -5.5499      2.00000
     16      -5.3500      2.00000
     17      -4.9504      2.00000
     18      -4.6734      2.00000
     19      -3.8809      2.00000
     20      -3.3364      2.00000
     21      -2.7944      2.00000
     22      -2.6966      2.00000
     23      -2.3002      2.00000
     24      -2.1559      2.00000
     25      -2.0873      2.00000
     26      -1.8648      2.00000
     27      -1.3763      2.00000
     28      -1.1850      2.00000
     29      -0.6265      2.00000
     30      -0.0451      2.00000
     31       1.8104      0.00000
     32       2.1747      0.00000
     33       2.3242      0.00000
     34       2.5944      0.00000
     35       2.9611      0.00000
     36       3.4296      0.00000
     37       3.6527      0.00000
     38       3.7459      0.00000
     39       3.9770      0.00000
     40       4.1125      0.00000

 k-point    12 :       0.4286    0.0000    0.3333
  band No.  band energies     occupation 
      1     -12.4157      2.00000
      2     -12.2439      2.00000
      3     -12.1451      2.00000
      4     -11.5632      2.00000
      5     -11.3843      2.00000
      6     -11.2976      2.00000
      7     -10.0244      2.00000
      8      -9.7125      2.00000
      9      -9.5098      2.00000
     10      -9.0860      2.00000
     11      -8.7635      2.00000
     12      -8.5611      2.00000
     13      -5.7440      2.00000
     14      -5.4589      2.00000
     15      -5.2219      2.00000
     16      -5.0530      2.00000
     17      -4.6296      2.00000
     18      -4.5250      2.00000
     19      -4.3307      2.00000
     20      -4.2287      2.00000
     21      -3.8934      2.00000
     22      -3.7983      2.00000
     23      -3.3916      2.00000
     24      -3.0301      2.00000
     25      -2.3233      2.00000
     26      -1.8203      2.00000
     27      -1.4238      2.00000
     28      -0.9288      2.00000
     29      -0.5473      2.00000
     30      -0.0158      2.00000
     31       1.5425      0.00000
     32       2.2888      0.00000
     33       2.4228      0.00000
     34       2.6234      0.00000
     35       2.8904      0.00000
     36       3.1306      0.00000
     37       3.3695      0.00000
     38       3.8419      0.00000
     39       3.9028      0.00000
     40       4.0069      0.00000

 k-point    13 :       0.0000    0.0000    0.5000
  band No.  band energies     occupation 
      1     -13.8053      2.00000
      2     -13.8053      2.00000
      3     -13.4455      2.00000
      4     -13.4455      2.00000
      5     -13.3832      2.00000
      6     -13.3832      2.00000
      7      -8.6962      2.00000
      8      -8.6962      2.00000
      9      -8.3054      2.00000
     10      -8.3054      2.00000
     11      -7.9860      2.00000
     12      -7.9860      2.00000
     13      -3.8244      2.00000
     14      -3.8244      2.00000
     15      -2.9056      2.00000
     16      -2.9056      2.00000
     17      -2.6440      2.00000
     18      -2.6440      2.00000
     19      -2.3362      2.00000
     20      -2.3362      2.00000
     21      -2.3227      2.00000
     22      -2.3227      2.00000
     23      -1.9667      2.00000
     24      -1.9667      2.00000
     25      -0.9951      2.00000
     26      -0.9951      2.00000
     27      -0.5973      2.00000
     28      -0.5973      2.00000
     29      -0.1518      2.00000
     30      -0.1518      2.00000
     31       1.6372      0.00000
     32       1.6372      0.00000
     33       2.3259      0.00000
     34       2.3259      0.00000
     35       2.5945      0.00000
     36       2.5945      0.00000
     37       3.3105      0.00000
     38       3.3106      0.00000
     39       3.3209      0.00000
     40       3.3211      0.00000

 k-point    14 :       0.1429    0.0000    0.5000
  band No.  band energies     occupation 
      1     -13.5769      2.00000
      2     -13.5769      2.00000
      3     -13.2211      2.00000
      4     -13.2211      2.00000
      5     -13.1600      2.00000
      6     -13.1600      2.00000
      7      -8.5947      2.00000
      8      -8.5947      2.00000
      9      -8.2119      2.00000
     10      -8.2119      2.00000
     11      -7.9031      2.00000
     12      -7.9031      2.00000
     13      -4.2191      2.00000
     14      -4.2191      2.00000
     15      -3.9532      2.00000
     16      -3.9532      2.00000
     17      -3.8288      2.00000
     18      -3.8288      2.00000
     19      -3.6086      2.00000
     20      -3.6086      2.00000
     21      -2.7746      2.00000
     22      -2.7746      2.00000
     23      -1.8887      2.00000
     24      -1.8887      2.00000
     25      -1.0410      2.00000
     26      -1.0410      2.00000
     27      -0.5460      2.00000
     28      -0.5460      2.00000
     29       0.0094      2.00000
     30       0.0094      2.00000
     31       2.6305      0.00000
     32       2.6305      0.00000
     33       2.7557      0.00000
     34       2.7557      0.00000
     35       3.0326      0.00000
     36       3.0326      0.00000
     37       3.1130      0.00000
     38       3.1130      0.00000
     39       3.9452      0.00000
     40       3.9453      0.00000

 k-point    15 :       0.2857    0.0000    0.5000
  band No.  band energies     occupation 
      1     -12.9168      2.00000
      2     -12.9168      2.00000
      3     -12.5785      2.00000
      4     -12.5785      2.00000
      5     -12.5214      2.00000
      6     -12.5214      2.00000
      7      -8.6579      2.00000
      8      -8.6579      2.00000
      9      -8.3134      2.00000
     10      -8.3134      2.00000
     11      -8.0747      2.00000
     12      -8.0747      2.00000
     13      -5.7593      2.00000
     14      -5.7593      2.00000
     15      -5.4584      2.00000
     16      -5.4584      2.00000
     17      -5.2612      2.00000
     18      -5.2612      2.00000
     19      -3.5080      2.00000
     20      -3.5080      2.00000
     21      -2.7906      2.00000
     22      -2.7906      2.00000
     23      -2.2919      2.00000
     24      -2.2919      2.00000
     25      -2.1365      2.00000
     26      -2.1365      2.00000
     27      -1.2894      2.00000
     28      -1.2894      2.00000
     29      -0.4434      2.00000
     30      -0.4434      2.00000
     31       2.5468      0.00000
     32       2.5468      0.00000
     33       3.3161      0.00000
     34       3.3161      0.00000
     35       3.5391      0.00000
     36       3.5391      0.00000
     37       3.7960      0.00000
     38       3.7960      0.00000
     39       4.0055      0.00000
     40       4.0055      0.00000

 k-point    16 :       0.4286    0.0000    0.5000
  band No.  band energies     occupation 
      1     -11.9912      2.00000
      2     -11.9912      2.00000
      3     -11.7356      2.00000
      4     -11.7356      2.00000
      5     -11.6753      2.00000
      6     -11.6753      2.00000
      7      -9.5740      2.00000
      8      -9.5740      2.00000
      9      -9.2460      2.00000
     10      -9.2460      2.00000
     11      -9.0767      2.00000
     12      -9.0767      2.00000
     13      -5.5912      2.00000
     14      -5.5912      2.00000
     15      -5.2377      2.00000
     16      -5.2377      2.00000
     17      -4.9478      2.00000
     18      -4.9478      2.00000
     19      -4.4435      2.00000
     20      -4.4435      2.00000
     21      -4.0199      2.00000
     22      -4.0199      2.00000
     23      -3.7034      2.00000
     24      -3.7034      2.00000
     25      -2.0941      2.00000
     26      -2.0941      2.00000
     27      -1.1742      2.00000
     28      -1.1742      2.00000
     29      -0.2530      2.00000
     30      -0.2530      2.00000
     31       1.8309      0.00000
     32       1.8309      0.00000
     33       2.8226      0.00000
     34       2.8226      0.00000
     35       3.8695      0.00000
     36       3.8695      0.00000
     37       4.3754      0.00000
     38       4.3754      0.00000
     39       4.6119      0.00000
     40       4.6908      0.00000


--------------------------------------------------------------------------------------------------------


 soft charge-density along one line, spin component           1
         0         1         2         3         4         5         6         7         8         9
 total charge-density along one line
 
 pseudopotential strength for first ion, spin component:           1
 29.687  37.033   0.035  -0.033   0.000   0.055  -0.051  -0.000
 37.033  46.201   0.044  -0.041  -0.000   0.068  -0.063  -0.000
  0.035   0.044   6.554   0.006  -0.000  10.136   0.009  -0.000
 -0.033  -0.041   0.006   6.557  -0.000   0.009  10.141  -0.000
  0.000  -0.000  -0.000  -0.000   6.562  -0.000  -0.000  10.148
  0.055   0.068  10.136   0.009  -0.000  15.693   0.014  -0.000
 -0.051  -0.063   0.009  10.141  -0.000   0.014  15.701  -0.000
 -0.000  -0.000  -0.000  -0.000  10.148  -0.000  -0.000  15.711
 total augmentation occupancy for first ion, spin component:           1
  8.289  -4.729   1.845  -1.943   0.000  -0.597   0.649   0.000
 -4.729   3.440  -1.582   1.649   0.000   0.442  -0.476   0.000
  1.845  -1.582   3.117   0.199   0.000  -0.823  -0.162   0.000
 -1.943   1.649   0.199   3.274   0.000  -0.160  -0.925   0.000
  0.000  -0.000   0.000   0.000   3.402   0.000   0.000  -1.028
 -0.597   0.442  -0.823  -0.160   0.000   0.261   0.070   0.000
  0.649  -0.476  -0.162  -0.925   0.000   0.070   0.299   0.000
  0.000   0.000   0.000   0.000  -1.028   0.000   0.000   0.340


------------------------ aborting loop because EDIFF is reached ----------------------------------------


 


 total charge     
 
# of ion       s       p       d       tot
------------------------------------------
    1        1.083   1.374   0.000   2.457
    2        1.083   1.374   0.000   2.457
    3        1.087   1.372   0.000   2.459
    4        1.087   1.372   0.000   2.459
    5        1.088   1.371   0.000   2.459
    6        1.088   1.371   0.000   2.459
    7        1.088   1.371   0.000   2.459
    8        1.088   1.371   0.000   2.459
    9        1.087   1.372   0.000   2.459
   10        1.087   1.372   0.000   2.459
   11        1.083   1.374   0.000   2.457
   12        1.083   1.374   0.000   2.457
--------------------------------------------------
tot         13.030  16.468   0.000  29.498
 
    CHARGE:  cpu time    0.0447: real time    0.0447
    FORLOC:  cpu time    0.0015: real time    0.0015
    FORNL :  cpu time    0.1659: real time    0.1659
    STRESS:  cpu time    0.2698: real time    0.2698
    FORCOR:  cpu time    0.0199: real time    0.0199
    FORHAR:  cpu time    0.0058: real time    0.0058
    MIXING:  cpu time    0.0011: real time    0.0011
    OFIELD:  cpu time    0.0000: real time    0.0000

  DFT-D2 method for vdW energy calculation
  -------------------------------------------------------------------

  Parameters of vdW forcefield:
         C6(Jnm^6/mol)     R0(A)
   -----------------------------
   P        7.840          1.705

  IVDW =  10
  VDW_RADIUS =    50.000 A
  VDW_S6 =     0.750
  VDW_SR =     1.000
  VDW_D =    20.000
  LVDW_EWALD = F

  Number of pair interactions contributing to vdW energy:   88350
  Edisp (eV):   -2.08565
    FORVDW:  cpu time    0.0520: real time    0.0530

  FORCE on cell =-STRESS in cart. coord.  units (eV):
  Direction    XX          YY          ZZ          XY          YZ          ZX
  --------------------------------------------------------------------------------------
  Alpha Z    30.28014    30.28014    30.28014
  Ewald   16590.51958-17991.47779 16385.24763    -0.00000     0.00000     0.00000
  Hartree 16900.78892-16744.99030 16819.99915    -0.00000    -0.00000    -0.00000
  E(xc)    -201.85463  -202.64496  -202.05772    -0.00000    -0.00000     0.00000
  Local  -34445.00733 33745.68376-34181.05006    -0.00000     0.00000     0.00000
  n-local   681.46169   677.25426   676.44675    -0.00000    -0.00000     1.98350
  augment  -126.70661  -130.48428  -129.28045     0.00000     0.00000     0.00000
  Kinetic   569.23861   623.99888   601.96925    -0.00000    -0.00000     7.87264
  Fock        0.00000     0.00000     0.00000     0.00000     0.00000     0.00000
  vdW        -0.39704    -1.16456    -0.96856    -0.00000    -0.00000     0.00000
  -------------------------------------------------------------------------------------
  Total      -1.67667     6.45516     0.58614     0.00000     0.00000     0.00000
  in kB      -5.63412    21.69127     1.96960     0.00000     0.00000     0.00000
  external pressure =        6.01 kB  Pullay stress =        0.00 kB


 VOLUME and BASIS-vectors are now :
 -----------------------------------------------------------------------------
  energy-cutoff  :      450.00
  volume of cell :      476.80
      direct lattice vectors                 reciprocal lattice vectors
     3.342886000  0.000000000  0.000000000     0.299142717  0.000000000  0.000000000
     0.000000000 32.602409000  0.000000000     0.000000000  0.030672580  0.000000000
     0.000000000  0.000000000  4.374831000     0.000000000  0.000000000  0.228580258

  length of vectors
     3.342886000 32.602409000  4.374831000     0.299142717  0.030672580  0.228580258


 FORCES acting on ions
    electron-ion (+dipol)            ewald-force                    non-local-force                 convergence-correction
 -----------------------------------------------------------------------------------------------
   -.100E-14 0.822E+03 -.289E+02   0.141E-14 -.828E+03 0.340E+02   -.278E-16 0.559E+01 -.516E+01   0.211E-14 0.988E-03 -.164E-03
   -.110E-13 0.822E+03 0.289E+02   -.486E-14 -.828E+03 -.340E+02   0.000E+00 0.559E+01 0.516E+01   0.272E-15 0.988E-03 0.164E-03
   -.226E-14 0.463E+03 0.311E+02   0.143E-14 -.458E+03 -.368E+02   -.278E-16 -.535E+01 0.566E+01   0.264E-14 0.167E-04 0.995E-04
   -.161E-13 0.463E+03 -.311E+02   -.914E-14 -.458E+03 0.368E+02   0.555E-16 -.535E+01 -.566E+01   0.124E-15 0.167E-04 -.995E-04
   -.129E-13 0.179E+03 -.310E+02   0.131E-15 -.184E+03 0.367E+02   0.000E+00 0.534E+01 -.562E+01   -.979E-16 -.233E-03 -.711E-04
   -.171E-14 0.179E+03 0.310E+02   -.493E-14 -.184E+03 -.367E+02   0.000E+00 0.534E+01 0.562E+01   0.277E-14 -.233E-03 0.711E-04
   -.149E-13 -.179E+03 0.310E+02   0.259E-14 0.184E+03 -.367E+02   0.000E+00 -.534E+01 0.562E+01   0.157E-14 0.233E-03 0.711E-04
   -.810E-15 -.179E+03 -.310E+02   -.643E-14 0.184E+03 0.367E+02   0.000E+00 -.534E+01 -.562E+01   0.116E-14 0.233E-03 -.711E-04
   -.673E-15 -.463E+03 -.311E+02   0.129E-14 0.458E+03 0.368E+02   0.278E-16 0.535E+01 -.566E+01   0.114E-14 -.167E-04 -.995E-04
   -.139E-13 -.463E+03 0.311E+02   -.223E-14 0.458E+03 -.368E+02   -.555E-16 0.535E+01 0.566E+01   0.159E-14 -.167E-04 0.995E-04
   -.873E-15 -.822E+03 0.289E+02   0.131E-14 0.828E+03 -.340E+02   0.278E-16 -.559E+01 0.516E+01   0.219E-14 -.988E-03 0.164E-03
   -.146E-13 -.822E+03 -.289E+02   -.650E-14 0.828E+03 0.340E+02   0.000E+00 -.559E+01 -.516E+01   0.678E-15 -.988E-03 -.164E-03
 -----------------------------------------------------------------------------------------------
   -.906E-13 0.415E-11 0.434E-10   -.259E-13 0.227E-12 0.000E+00   0.000E+00 -.888E-15 0.266E-14   0.161E-13 -.366E-11 -.122E-14
 
 
 POSITION                                       TOTAL-FORCE (eV/Angst)
 -----------------------------------------------------------------------------------
      0.00000     10.00001      4.02014         0.000000     -0.094772     -0.106692
      1.67144     10.00001      2.54211         0.000000     -0.094772      0.106692
      0.00000     12.14332      0.35469         0.000000     -0.296312     -0.062001
      1.67144     12.14332      1.83272         0.000000     -0.296312      0.062001
      1.67144     15.22953      1.83272         0.000000      0.190359      0.052880
      0.00000     15.22953      0.35469         0.000000      0.190359     -0.052880
      1.67144     17.37288      2.54211         0.000000     -0.190359     -0.052880
      0.00000     17.37288      4.02014         0.000000     -0.190359      0.052880
      0.00000     20.45909      4.02014         0.000000      0.296312      0.062001
      1.67144     20.45909      2.54211         0.000000      0.296312     -0.062001
      0.00000     22.60240      0.35469         0.000000      0.094772      0.106692
      1.67144     22.60240      1.83272         0.000000      0.094772     -0.106692
 -----------------------------------------------------------------------------------
    total drift:                               -0.000000      0.000000      0.000000


--------------------------------------------------------------------------------------------------------



  FREE ENERGIE OF THE ION-ELECTRON SYSTEM (eV)
  ---------------------------------------------------
  free  energy   TOTEN  =       -65.86845841 eV

  energy  without entropy=      -65.86845841  energy(sigma->0) =      -65.86845841
 


--------------------------------------------------------------------------------------------------------


    POTLOK:  cpu time    0.1141: real time    0.1142


--------------------------------------------------------------------------------------------------------


 writing wavefunctions
     LOOP+:  cpu time   20.1411: real time   20.4804
    4ORBIT:  cpu time    0.0000: real time    0.0000
 


 total charge     
 
# of ion       s       p       d       tot
------------------------------------------
    1        1.083   1.374   0.000   2.457
    2        1.083   1.374   0.000   2.457
    3        1.087   1.372   0.000   2.459
    4        1.087   1.372   0.000   2.459
    5        1.088   1.371   0.000   2.459
    6        1.088   1.371   0.000   2.459
    7        1.088   1.371   0.000   2.459
    8        1.088   1.371   0.000   2.459
    9        1.087   1.372   0.000   2.459
   10        1.087   1.372   0.000   2.459
   11        1.083   1.374   0.000   2.457
   12        1.083   1.374   0.000   2.457
--------------------------------------------------
tot         13.030  16.468   0.000  29.498
 

 total amount of memory used by VASP MPI-rank0    38699. kBytes
=======================================================================

   base      :      30000. kBytes
   nonl-proj :       1595. kBytes
   fftplans  :       1467. kBytes
   grid      :       2232. kBytes
   one-center:          6. kBytes
   wavefun   :       3399. kBytes
 
  
  
 General timing and accounting informations for this job:
 ========================================================
  
                  Total CPU time used (sec):       26.934
                            User time (sec):       23.754
                          System time (sec):        3.180
                         Elapsed time (sec):       27.963
  
                   Maximum memory used (kb):      110604.
                   Average memory used (kb):           0.
  
                          Minor page faults:        41854
                          Major page faults:            0
                 Voluntary context switches:         2640
