<?xml version="1.0" encoding="ISO-8859-1"?>
<modeling>
 <generator>
  <i name="program" type="string">vasp </i>
  <i name="version" type="string">5.4.4.18Apr17-6-g9f103f2a35  </i>
  <i name="subversion" type="string">(build Jun 20 2017 18:00:50) complex            parallel </i>
  <i name="platform" type="string">LinuxIFC </i>
  <i name="date" type="string">2018 03 22 </i>
  <i name="time" type="string">15:20:06 </i>
 </generator>
 <incar>
  <i type="string" name="SYSTEM"> Generic Input</i>
  <i type="int" name="ISTART">     1</i>
  <i type="string" name="PREC">normal    ! precision level</i>
  <i type="int" name="IALGO">    53</i>
  <i type="string" name="ALGO"> Normal    ! SCF minimisation algorithm</i>
  <i type="int" name="INIWAV">     1</i>
  <i type="int" name="NELM">   200</i>
  <i type="int" name="NELMIN">     2</i>
  <i type="int" name="IBRION">     2</i>
  <i name="EDIFF">      0.00001000</i>
  <i name="EDIFFG">     -0.02000000</i>
  <i type="int" name="NSW">     0</i>
  <i type="int" name="ISIF">     3</i>
  <i type="int" name="IWAVPR">    11</i>
  <i type="int" name="NBLOCK">     1</i>
  <i type="int" name="KBLOCK">    40</i>
  <i name="ENCUT">    450.00000000</i>
  <i type="int" name="NEDOS">  2000</i>
  <i type="int" name="ISMEAR">     0</i>
  <i name="SIGMA">      0.01000000</i>
  <i type="int" name="NWRITE">     2</i>
  <i type="logical" name="LVHAR"> T  </i>
  <i type="int" name="LORBIT">    11</i>
  <i type="logical" name="LASPH"> T  </i>
  <i type="int" name="ICORELEVEL">     1</i>
  <v type="int" name="KPOINT_BSE">    -1     0     0     0</v>
  <i type="int" name="NELM">   200</i>
  <i type="string" name="GGA"> PE        ! PBEsol exchange-correlation</i>
  <i type="logical" name="LASPH"> T  </i>
 </incar>
 <structure name="primitive_cell" >
  <crystal>
   <varray name="basis" >
    <v>       3.34288600       0.00000000       0.00000000 </v>
    <v>       0.00000000      32.60240900       0.00000000 </v>
    <v>       0.00000000       0.00000000       4.37483100 </v>
   </varray>
   <i name="volume">    476.79592902 </i>
   <varray name="rec_basis" >
    <v>       0.29914272       0.00000000       0.00000000 </v>
    <v>       0.00000000       0.03067258       0.00000000 </v>
    <v>       0.00000000       0.00000000       0.22858026 </v>
   </varray>
  </crystal>
  <varray name="positions" >
   <v>       0.00000000       0.30672600      -0.08107600 </v>
   <v>      -0.50000000       0.30672600      -0.41892400 </v>
   <v>       0.00000000       0.37246700       0.08107600 </v>
   <v>      -0.50000000       0.37246700       0.41892400 </v>
   <v>       0.00000000       0.46712900       0.08107600 </v>
   <v>      -0.50000000       0.46712900       0.41892400 </v>
   <v>       0.00000000      -0.46712900      -0.08107600 </v>
   <v>      -0.50000000      -0.46712900      -0.41892400 </v>
   <v>       0.00000000      -0.37246700      -0.08107600 </v>
   <v>      -0.50000000      -0.37246700      -0.41892400 </v>
   <v>       0.00000000      -0.30672600       0.08107600 </v>
   <v>      -0.50000000      -0.30672600       0.41892400 </v>
  </varray>
 </structure>
 <varray name="primitive_index" >
  <v type="int" >        1 </v>
  <v type="int" >        2 </v>
  <v type="int" >        3 </v>
  <v type="int" >        4 </v>
  <v type="int" >        6 </v>
  <v type="int" >        5 </v>
  <v type="int" >        8 </v>
  <v type="int" >        7 </v>
  <v type="int" >        9 </v>
  <v type="int" >       10 </v>
  <v type="int" >       11 </v>
  <v type="int" >       12 </v>
 </varray>
 <kpoints>
  <generation param="Gamma">
   <v type="int" name="divisions">       7        1        6 </v>
   <v name="usershift">      0.00000000       0.00000000       0.00000000 </v>
   <v name="genvec1">      0.14285714       0.00000000       0.00000000 </v>
   <v name="genvec2">      0.00000000       1.00000000       0.00000000 </v>
   <v name="genvec3">      0.00000000       0.00000000       0.16666667 </v>
   <v name="shift">      0.00000000       0.00000000       0.00000000 </v>
  </generation>
  <varray name="kpointlist" >
   <v>       0.00000000       0.00000000       0.00000000 </v>
   <v>       0.14285714       0.00000000       0.00000000 </v>
   <v>       0.28571429       0.00000000       0.00000000 </v>
   <v>       0.42857143       0.00000000       0.00000000 </v>
   <v>       0.00000000       0.00000000       0.16666667 </v>
   <v>       0.14285714       0.00000000       0.16666667 </v>
   <v>       0.28571429       0.00000000       0.16666667 </v>
   <v>       0.42857143       0.00000000       0.16666667 </v>
   <v>       0.00000000       0.00000000       0.33333333 </v>
   <v>       0.14285714       0.00000000       0.33333333 </v>
   <v>       0.28571429       0.00000000       0.33333333 </v>
   <v>       0.42857143       0.00000000       0.33333333 </v>
   <v>       0.00000000       0.00000000       0.50000000 </v>
   <v>       0.14285714       0.00000000       0.50000000 </v>
   <v>       0.28571429       0.00000000       0.50000000 </v>
   <v>       0.42857143       0.00000000       0.50000000 </v>
  </varray>
  <varray name="weights" >
   <v>       0.02380952 </v>
   <v>       0.04761905 </v>
   <v>       0.04761905 </v>
   <v>       0.04761905 </v>
   <v>       0.04761905 </v>
   <v>       0.09523810 </v>
   <v>       0.09523810 </v>
   <v>       0.09523810 </v>
   <v>       0.04761905 </v>
   <v>       0.09523810 </v>
   <v>       0.09523810 </v>
   <v>       0.09523810 </v>
   <v>       0.02380952 </v>
   <v>       0.04761905 </v>
   <v>       0.04761905 </v>
   <v>       0.04761905 </v>
  </varray>
 </kpoints>
 <parameters>
  <separator name="general" >
   <i type="string" name="SYSTEM">Generic Input</i>
   <i type="logical" name="LCOMPAT"> F  </i>
  </separator>
  <separator name="electronic" >
   <i type="string" name="PREC">normal</i>
   <i name="ENMAX">    450.00000000</i>
   <i name="ENAUG">    342.92400000</i>
   <i name="EDIFF">      0.00001000</i>
   <i type="int" name="IALGO">    38</i>
   <i type="int" name="IWAVPR">    11</i>
   <i type="int" name="NBANDS">    40</i>
   <i name="NELECT">     60.00000000</i>
   <i type="int" name="TURBO">     0</i>
   <i type="int" name="IRESTART">     0</i>
   <i type="int" name="NREBOOT">     0</i>
   <i type="int" name="NMIN">     0</i>
   <i name="EREF">      0.00000000</i>
   <separator name="electronic smearing" >
    <i type="int" name="ISMEAR">     0</i>
    <i name="SIGMA">      0.01000000</i>
    <i name="KSPACING">      0.50000000</i>
    <i type="logical" name="KGAMMA"> T  </i>
   </separator>
   <separator name="electronic projectors" >
    <i type="logical" name="LREAL"> F  </i>
    <v name="ROPT">      0.00000000</v>
    <i type="int" name="LMAXPAW">  -100</i>
    <i type="int" name="LMAXMIX">     2</i>
    <i type="logical" name="NLSPLINE"> F  </i>
   </separator>
   <separator name="electronic startup" >
    <i type="int" name="ISTART">     0</i>
    <i type="int" name="ICHARG">     2</i>
    <i type="int" name="INIWAV">     1</i>
   </separator>
   <separator name="electronic spin" >
    <i type="int" name="ISPIN">     1</i>
    <i type="logical" name="LNONCOLLINEAR"> F  </i>
    <v name="MAGMOM">      1.00000000      1.00000000      1.00000000      1.00000000      1.00000000      1.00000000      1.00000000      1.00000000      1.00000000      1.00000000      1.00000000      1.00000000</v>
    <i name="NUPDOWN">     -1.00000000</i>
    <i type="logical" name="LSORBIT"> F  </i>
    <v name="SAXIS">      0.00000000      0.00000000      1.00000000</v>
    <i type="logical" name="LSPIRAL"> F  </i>
    <v name="QSPIRAL">      0.00000000      0.00000000      0.00000000</v>
    <i type="logical" name="LZEROZ"> F  </i>
   </separator>
   <separator name="electronic exchange-correlation" >
    <i type="logical" name="LASPH"> T  </i>
    <i type="logical" name="LMETAGGA"> F  </i>
   </separator>
   <separator name="electronic convergence" >
    <i type="int" name="NELM">   200</i>
    <i type="int" name="NELMDL">     0</i>
    <i type="int" name="NELMIN">     2</i>
    <i name="ENINI">    450.00000000</i>
    <separator name="electronic convergence detail" >
     <i type="logical" name="LDIAG"> T  </i>
     <i type="logical" name="LSUBROT"> F  </i>
     <i name="WEIMIN">      0.00000000</i>
     <i name="EBREAK">      0.00000006</i>
     <i name="DEPER">      0.30000000</i>
     <i type="int" name="NRMM">     4</i>
     <i name="TIME">      0.40000000</i>
    </separator>
   </separator>
   <separator name="electronic mixer" >
    <i name="AMIX">      0.40000000</i>
    <i name="BMIX">      1.00000000</i>
    <i name="AMIN">      0.10000000</i>
    <i name="AMIX_MAG">      1.60000000</i>
    <i name="BMIX_MAG">      1.00000000</i>
    <separator name="electronic mixer details" >
     <i type="int" name="IMIX">     4</i>
     <i type="logical" name="MIXFIRST"> F  </i>
     <i type="int" name="MAXMIX">   -45</i>
     <i name="WC">    100.00000000</i>
     <i type="int" name="INIMIX">     1</i>
     <i type="int" name="MIXPRE">     1</i>
     <i type="int" name="MREMOVE">     5</i>
    </separator>
   </separator>
   <separator name="electronic dipolcorrection" >
    <i type="logical" name="LDIPOL"> F  </i>
    <i type="logical" name="LMONO"> F  </i>
    <i type="int" name="IDIPOL">     0</i>
    <i name="EPSILON">      1.00000000</i>
    <v name="DIPOL">   -100.00000000   -100.00000000   -100.00000000</v>
    <i name="EFIELD">      0.00000000</i>
   </separator>
  </separator>
  <separator name="grids" >
   <i type="int" name="NGX">    18</i>
   <i type="int" name="NGY">   180</i>
   <i type="int" name="NGZ">    24</i>
   <i type="int" name="NGXF">    36</i>
   <i type="int" name="NGYF">   360</i>
   <i type="int" name="NGZF">    48</i>
   <i type="logical" name="ADDGRID"> F  </i>
  </separator>
  <separator name="ionic" >
   <i type="int" name="NSW">     0</i>
   <i type="int" name="IBRION">    -1</i>
   <i type="int" name="MDALGO">     0</i>
   <i type="int" name="ISIF">     3</i>
   <i name="PSTRESS">      0.00000000</i>
   <i name="EDIFFG">     -0.02000000</i>
   <i type="int" name="NFREE">     1</i>
   <i name="POTIM">      0.50000000</i>
   <i name="SMASS">     -3.00000000</i>
   <i name="SCALEE">      1.00000000</i>
  </separator>
  <separator name="ionic md" >
   <i name="TEBEG">      0.00010000</i>
   <i name="TEEND">      0.00010000</i>
   <i type="int" name="NBLOCK">     1</i>
   <i type="int" name="KBLOCK">     1</i>
   <i type="int" name="NPACO">   256</i>
   <i name="APACO">     16.00000000</i>
  </separator>
  <separator name="symmetry" >
   <i type="int" name="ISYM">     2</i>
   <i name="SYMPREC">      0.00001000</i>
  </separator>
  <separator name="dos" >
   <i type="int" name="LORBIT">    11</i>
   <v name="RWIGS">     -1.00000000</v>
   <i type="int" name="NEDOS">  2000</i>
   <i name="EMIN">     10.00000000</i>
   <i name="EMAX">    -10.00000000</i>
   <i name="EFERMI">      0.00000000</i>
  </separator>
  <separator name="writing" >
   <i type="int" name="NWRITE">     2</i>
   <i type="logical" name="LWAVE"> T  </i>
   <i type="logical" name="LDOWNSAMPLE"> F  </i>
   <i type="logical" name="LCHARG"> T  </i>
   <i type="logical" name="LPARD"> F  </i>
   <i type="logical" name="LVTOT"> F  </i>
   <i type="logical" name="LVHAR"> T  </i>
   <i type="logical" name="LELF"> F  </i>
   <i type="logical" name="LOPTICS"> F  </i>
   <v name="STM">      0.00000000      0.00000000      0.00000000      0.00000000      0.00000000      0.00000000      0.00000000</v>
  </separator>
  <separator name="performance" >
   <i type="int" name="NPAR">     4</i>
   <i type="int" name="NSIM">     4</i>
   <i type="int" name="NBLK">    -1</i>
   <i type="logical" name="LPLANE"> T  </i>
   <i type="logical" name="LSCALAPACK"> T  </i>
   <i type="logical" name="LSCAAWARE"> F  </i>
   <i type="logical" name="LSCALU"> F  </i>
   <i type="logical" name="LASYNC"> F  </i>
   <i type="logical" name="LORBITALREAL"> F  </i>
  </separator>
  <separator name="miscellaneous" >
   <i type="int" name="IDIOT">     3</i>
   <i type="int" name="ISPECIAL">     0</i>
   <i type="logical" name="LMUSIC"> F  </i>
   <v name="POMASS">     30.97400000</v>
   <v name="DARWINR">      0.00000000</v>
   <v name="DARWINV">      1.00000000</v>
   <i type="logical" name="LCORR"> T  </i>
  </separator>
  <i type="logical" name="GGA_COMPAT"> T  </i>
  <i type="logical" name="LBERRY"> F  </i>
  <i type="int" name="ICORELEVEL">     1</i>
  <i type="int" name="CLNT">     1</i>
  <i type="int" name="CLN">     1</i>
  <i type="int" name="CLL">     0</i>
  <i name="CLZ">      0.00000000</i>
  <i type="logical" name="LDAU"> F  </i>
  <i type="int" name="I_CONSTRAINED_M">     0</i>
  <separator name="electronic exchange-correlation" >
   <i type="string" name="GGA">PE</i>
   <i type="int" name="VOSKOWN">     0</i>
   <i type="logical" name="LHFCALC"> F  </i>
   <i type="string" name="PRECFOCK"></i>
   <i type="logical" name="LSYMGRAD"> F  </i>
   <i type="logical" name="LHFONE"> F  </i>
   <i type="logical" name="LRHFCALC"> F  </i>
   <i type="logical" name="LTHOMAS"> F  </i>
   <i type="logical" name="LMODELHF"> F  </i>
   <i name="ENCUT4O">     -1.00000000</i>
   <i type="int" name="EXXOEP">     0</i>
   <i type="int" name="FOURORBIT">     0</i>
   <i name="AEXX">      0.00000000</i>
   <i name="HFALPHA">      0.00000000</i>
   <i name="MCALPHA">      0.00000000</i>
   <i name="ALDAX">      1.00000000</i>
   <i name="AGGAX">      1.00000000</i>
   <i name="ALDAC">      1.00000000</i>
   <i name="AGGAC">      1.00000000</i>
   <i type="int" name="NKREDX">     1</i>
   <i type="int" name="NKREDY">     1</i>
   <i type="int" name="NKREDZ">     1</i>
   <i type="logical" name="SHIFTRED"> F  </i>
   <i type="logical" name="ODDONLY"> F  </i>
   <i type="logical" name="EVENONLY"> F  </i>
   <i type="int" name="LMAXFOCK">     0</i>
   <i type="int" name="NMAXFOCKAE">     0</i>
   <i type="logical" name="LFOCKAEDFT"> F  </i>
   <i name="HFSCREEN">      0.00000000</i>
   <i name="HFSCREENC">      0.00000000</i>
   <i type="int" name="NBANDSGWLOW">     0</i>
  </separator>
  <separator name="vdW DFT" >
   <i type="logical" name="LUSE_VDW"> F  </i>
   <i name="Zab_VDW">     -0.84910000</i>
   <i name="PARAM1">      0.12340000</i>
   <i name="PARAM2">      1.00000000</i>
   <i name="PARAM3">      0.00000000</i>
  </separator>
  <separator name="model GW" >
   <i type="int" name="MODEL_GW">     0</i>
   <i name="MODEL_EPS0">     23.83979645</i>
   <i name="MODEL_ALPHA">      1.00000000</i>
  </separator>
  <separator name="linear response parameters" >
   <i type="logical" name="LEPSILON"> F  </i>
   <i type="logical" name="LRPA"> F  </i>
   <i type="logical" name="LNABLA"> F  </i>
   <i type="logical" name="LVEL"> F  </i>
   <i type="int" name="KINTER">     0</i>
   <i name="CSHIFT">      0.10000000</i>
   <i name="OMEGAMAX">     -1.00000000</i>
   <i name="DEG_THRESHOLD">      0.00200000</i>
   <i name="RTIME">     -0.10000000</i>
   <i name="WPLASMAI">      0.00000000</i>
   <v name="DFIELD">      0.00000000      0.00000000      0.00000000</v>
   <v name="WPLASMA">      0.00000000      0.00000000      0.00000000      0.00000000      0.00000000      0.00000000      0.00000000      0.00000000      0.00000000</v>
  </separator>
  <separator name="orbital magnetization" >
   <i type="logical" name="NUCIND"> F  </i>
   <v name="MAGPOS">      0.00000000      0.00000000      0.00000000</v>
   <i type="logical" name="LNICSALL"> T  </i>
   <i type="logical" name="ORBITALMAG"> F  </i>
   <i type="logical" name="LMAGBLOCH"> F  </i>
   <i type="logical" name="LCHIMAG"> F  </i>
   <i type="logical" name="LGAUGE"> T  </i>
   <i type="int" name="MAGATOM">     0</i>
   <v name="MAGDIPOL">      0.00000000      0.00000000      0.00000000</v>
   <v name="AVECCONST">      0.00000000      0.00000000      0.00000000</v>
  </separator>
  <separator name="response functions" >
   <i type="logical" name="LADDER"> F  </i>
   <i type="logical" name="LRPAFORCE"> F  </i>
   <i type="logical" name="LFXC"> F  </i>
   <i type="logical" name="LHARTREE"> T  </i>
   <i type="int" name="IBSE">     0</i>
   <v type="int" name="KPOINT">    -1     0     0     0</v>
   <i type="logical" name="LTCTE"> F  </i>
   <i type="logical" name="LTETE"> F  </i>
   <i type="logical" name="LTRIPLET"> F  </i>
   <i type="logical" name="LFXCEPS"> F  </i>
   <i type="logical" name="LFXHEG"> F  </i>
   <i type="int" name="NATURALO">     2</i>
   <i type="logical" name="L2ORDER"> F  </i>
   <i type="logical" name="LMP2LT"> F  </i>
   <i type="logical" name="LUSEW"> F  </i>
   <i name="ENCUTGW">     -2.00000000</i>
   <i name="ENCUTGWSOFT">     -2.00000000</i>
   <i name="ENCUTLF">     -1.00000000</i>
   <i type="int" name="LMAXMP2">    -1</i>
   <i name="SCISSOR">      0.00000000</i>
   <i type="int" name="NOMEGA">     0</i>
   <i type="int" name="NOMEGAR">     0</i>
   <i type="int" name="NBANDSGW">    -1</i>
   <i type="int" name="NBANDSO">    -1</i>
   <i type="int" name="NBANDSV">    -1</i>
   <i type="int" name="NELM">   200</i>
   <i type="int" name="NELMHF">     1</i>
   <i type="int" name="DIM">     3</i>
   <i type="int" name="ANTIRES">     0</i>
   <i name="OMEGAMAX">    -30.00000000</i>
   <i name="OMEGAMIN">    -30.00000000</i>
   <i name="OMEGATL">   -200.00000000</i>
   <i type="int" name="OMEGAGRID">   140</i>
   <i name="CSHIFT">     -0.10000000</i>
   <i type="logical" name="SELFENERGY"> F  </i>
   <i type="logical" name="LSPECTRAL"> F  </i>
   <i type="logical" name="LSPECTRALGW"> F  </i>
   <i type="logical" name="LSINGLES"> F  </i>
   <i type="logical" name="LFERMIGW"> F  </i>
   <i type="logical" name="ODDONLYGW"> F  </i>
   <i type="logical" name="EVENONLYGW"> F  </i>
   <i type="int" name="NKREDLFX">     1</i>
   <i type="int" name="NKREDLFY">     1</i>
   <i type="int" name="NKREDLFZ">     1</i>
   <i type="int" name="MAXMEM">  2800</i>
   <i type="int" name="TELESCOPE">     0</i>
   <i type="int" name="TAUPAR">     1</i>
   <i type="int" name="OMEGAPAR">    -1</i>
   <i name="LAMBDA">      1.00000000</i>
  </separator>
  <separator name="External order field" >
   <i name="OFIELD_KAPPA">      0.00000000</i>
   <v name="OFIELD_K">      0.00000000      0.00000000      0.00000000</v>
   <i name="OFIELD_Q6_NEAR">      0.00000000</i>
   <i name="OFIELD_Q6_FAR">      0.00000000</i>
   <i name="OFIELD_A">      0.00000000</i>
  </separator>
 </parameters>
 <atominfo>
  <atoms>      12 </atoms>
  <types>       1 </types>
  <array name="atoms" >
   <dimension dim="1">ion</dimension>
   <field type="string">element</field>
   <field type="int">atomtype</field>
   <set>
    <rc><c>P </c><c>   1</c></rc>
    <rc><c>P </c><c>   1</c></rc>
    <rc><c>P </c><c>   1</c></rc>
    <rc><c>P </c><c>   1</c></rc>
    <rc><c>P </c><c>   1</c></rc>
    <rc><c>P </c><c>   1</c></rc>
    <rc><c>P </c><c>   1</c></rc>
    <rc><c>P </c><c>   1</c></rc>
    <rc><c>P </c><c>   1</c></rc>
    <rc><c>P </c><c>   1</c></rc>
    <rc><c>P </c><c>   1</c></rc>
    <rc><c>P </c><c>   1</c></rc>
   </set>
  </array>
  <array name="atomtypes" >
   <dimension dim="1">type</dimension>
   <field type="int">atomspertype</field>
   <field type="string">element</field>
   <field>mass</field>
   <field>valence</field>
   <field type="string">pseudopotential</field>
   <set>
    <rc><c>  12</c><c>P </c><c>     30.97400000</c><c>      5.00000000</c><c>  PAW_PBE P 06Sep2000                   </c></rc>
   </set>
  </array>
 </atominfo>
 <structure name="initialpos" >
  <crystal>
   <varray name="basis" >
    <v>       3.34288600       0.00000000       0.00000000 </v>
    <v>       0.00000000      32.60240900       0.00000000 </v>
    <v>       0.00000000       0.00000000       4.37483100 </v>
   </varray>
   <i name="volume">    476.79592902 </i>
   <varray name="rec_basis" >
    <v>       0.29914272       0.00000000       0.00000000 </v>
    <v>       0.00000000       0.03067258       0.00000000 </v>
    <v>       0.00000000       0.00000000       0.22858026 </v>
   </varray>
  </crystal>
  <varray name="positions" >
   <v>       0.00000000       0.30672600       0.91892400 </v>
   <v>       0.50000000       0.30672600       0.58107600 </v>
   <v>       0.00000000       0.37246700       0.08107600 </v>
   <v>       0.50000000       0.37246700       0.41892400 </v>
   <v>       0.50000000       0.46712900       0.41892400 </v>
   <v>       0.00000000       0.46712900       0.08107600 </v>
   <v>       0.50000000       0.53287100       0.58107600 </v>
   <v>       0.00000000       0.53287100       0.91892400 </v>
   <v>       0.00000000       0.62753300       0.91892400 </v>
   <v>       0.50000000       0.62753300       0.58107600 </v>
   <v>       0.00000000       0.69327400       0.08107600 </v>
   <v>       0.50000000       0.69327400       0.41892400 </v>
  </varray>
 </structure>
 <calculation>
  <scstep>
   <time name="dav">    0.84    0.87</time>
   <time name="total">    0.95    0.98</time>
   <energy>
    <i name="alphaZ">     30.28014394 </i>
    <i name="ewald">  14984.29168251 </i>
    <i name="hartreedc"> -16938.86341412 </i>
    <i name="XCdc">     40.54558770 </i>
    <i name="pawpsdc">   1677.12035881 </i>
    <i name="pawaedc">  -1579.18296132 </i>
    <i name="eentropy">     -0.00045232 </i>
    <i name="bandstr">     30.30483997 </i>
    <i name="atom">   2112.49373795 </i>
    <i name="e_fr_energy">    356.98952313 </i>
    <i name="e_wo_entrp">    356.98997545 </i>
    <i name="e_0_energy">    356.98974929 </i>
   </energy>
  </scstep>
  <scstep>
   <time name="dav">    0.97    0.97</time>
   <time name="total">    0.97    0.97</time>
   <energy>
    <i name="e_fr_energy">    -23.66927118 </i>
    <i name="e_wo_entrp">    -23.66927118 </i>
    <i name="e_0_energy">    -23.66927118 </i>
   </energy>
  </scstep>
  <scstep>
   <time name="dav">    0.84    0.84</time>
   <time name="total">    0.84    0.85</time>
   <energy>
    <i name="e_fr_energy">    -62.74997114 </i>
    <i name="e_wo_entrp">    -62.74997114 </i>
    <i name="e_0_energy">    -62.74997114 </i>
   </energy>
  </scstep>
  <scstep>
   <time name="dav">    1.03    1.03</time>
   <time name="total">    1.03    1.03</time>
   <energy>
    <i name="e_fr_energy">    -64.23263850 </i>
    <i name="e_wo_entrp">    -64.23263850 </i>
    <i name="e_0_energy">    -64.23263850 </i>
   </energy>
  </scstep>
  <scstep>
   <time name="dav">    1.03    1.03</time>
   <time name="total">    1.07    1.08</time>
   <energy>
    <i name="e_fr_energy">    -64.26786339 </i>
    <i name="e_wo_entrp">    -64.26786339 </i>
    <i name="e_0_energy">    -64.26786339 </i>
   </energy>
  </scstep>
  <scstep>
   <time name="dav">    0.89    0.89</time>
   <time name="total">    1.02    1.02</time>
   <energy>
    <i name="e_fr_energy">    -63.93106465 </i>
    <i name="e_wo_entrp">    -63.93106465 </i>
    <i name="e_0_energy">    -63.93106465 </i>
   </energy>
  </scstep>
  <scstep>
   <time name="dav">    0.86    0.86</time>
   <time name="total">    1.00    1.00</time>
   <energy>
    <i name="e_fr_energy">    -63.78140429 </i>
    <i name="e_wo_entrp">    -63.78140429 </i>
    <i name="e_0_energy">    -63.78140429 </i>
   </energy>
  </scstep>
  <scstep>
   <time name="dav">    0.89    0.89</time>
   <time name="total">    1.02    1.02</time>
   <energy>
    <i name="e_fr_energy">    -63.78241805 </i>
    <i name="e_wo_entrp">    -63.78241805 </i>
    <i name="e_0_energy">    -63.78241805 </i>
   </energy>
  </scstep>
  <scstep>
   <time name="dav">    1.02    1.03</time>
   <time name="total">    1.17    1.18</time>
   <energy>
    <i name="e_fr_energy">    -63.78237645 </i>
    <i name="e_wo_entrp">    -63.78237645 </i>
    <i name="e_0_energy">    -63.78237645 </i>
   </energy>
  </scstep>
  <scstep>
   <time name="dav">    0.86    0.86</time>
   <time name="total">    0.99    1.00</time>
   <energy>
    <i name="e_fr_energy">    -63.78219923 </i>
    <i name="e_wo_entrp">    -63.78219923 </i>
    <i name="e_0_energy">    -63.78219923 </i>
   </energy>
  </scstep>
  <scstep>
   <time name="dav">    0.90    0.90</time>
   <time name="total">    1.03    1.03</time>
   <energy>
    <i name="e_fr_energy">    -63.78209952 </i>
    <i name="e_wo_entrp">    -63.78209952 </i>
    <i name="e_0_energy">    -63.78209952 </i>
   </energy>
  </scstep>
  <scstep>
   <time name="dav">    0.85    0.85</time>
   <time name="total">    0.98    0.98</time>
   <energy>
    <i name="e_fr_energy">    -63.78215568 </i>
    <i name="e_wo_entrp">    -63.78215568 </i>
    <i name="e_0_energy">    -63.78215568 </i>
   </energy>
  </scstep>
  <scstep>
   <time name="dav">    0.85    0.86</time>
   <time name="total">    0.98    0.99</time>
   <energy>
    <i name="e_fr_energy">    -63.78231564 </i>
    <i name="e_wo_entrp">    -63.78231564 </i>
    <i name="e_0_energy">    -63.78231564 </i>
   </energy>
  </scstep>
  <scstep>
   <time name="dav">    0.77    0.77</time>
   <time name="total">    0.90    0.90</time>
   <energy>
    <i name="e_fr_energy">    -63.78243369 </i>
    <i name="e_wo_entrp">    -63.78243369 </i>
    <i name="e_0_energy">    -63.78243369 </i>
   </energy>
  </scstep>
  <scstep>
   <time name="dav">    0.69    0.69</time>
   <time name="total">    0.82    0.82</time>
   <energy>
    <i name="e_fr_energy">    -63.78258182 </i>
    <i name="e_wo_entrp">    -63.78258182 </i>
    <i name="e_0_energy">    -63.78258182 </i>
   </energy>
  </scstep>
  <scstep>
   <time name="dav">    0.72    0.72</time>
   <time name="total">    0.85    0.86</time>
   <energy>
    <i name="e_fr_energy">    -63.78273296 </i>
    <i name="e_wo_entrp">    -63.78273296 </i>
    <i name="e_0_energy">    -63.78273296 </i>
   </energy>
  </scstep>
  <scstep>
   <time name="dav">    0.69    0.69</time>
   <time name="total">    0.82    0.82</time>
   <energy>
    <i name="e_fr_energy">    -63.78276587 </i>
    <i name="e_wo_entrp">    -63.78276587 </i>
    <i name="e_0_energy">    -63.78276587 </i>
   </energy>
  </scstep>
  <scstep>
   <time name="dav">    0.68    0.68</time>
   <time name="total">    0.81    0.82</time>
   <energy>
    <i name="e_fr_energy">    -63.78280350 </i>
    <i name="e_wo_entrp">    -63.78280350 </i>
    <i name="e_0_energy">    -63.78280350 </i>
   </energy>
  </scstep>
  <scstep>
   <time name="dav">    0.66    0.90</time>
   <time name="total">    0.83    1.07</time>
   <energy>
    <i name="alphaZ">     30.28014394 </i>
    <i name="ewald">  14984.29168251 </i>
    <i name="hartreedc"> -16975.77541355 </i>
    <i name="XCdc">     43.39115868 </i>
    <i name="pawpsdc">   6385.28435668 </i>
    <i name="pawaedc">  -6288.27173437 </i>
    <i name="eentropy">     -0.00000000 </i>
    <i name="bandstr">   -355.47674369 </i>
    <i name="atom">   2112.49373795 </i>
    <i name="e_fr_energy">    -63.78281186 </i>
    <i name="e_wo_entrp">    -63.78281186 </i>
    <i name="e_0_energy">    -63.78281186 </i>
   </energy>
  </scstep>
  <structure>
   <crystal>
    <varray name="basis" >
     <v>       3.34288600       0.00000000       0.00000000 </v>
     <v>       0.00000000      32.60240900       0.00000000 </v>
     <v>       0.00000000       0.00000000       4.37483100 </v>
    </varray>
    <i name="volume">    476.79592902 </i>
    <varray name="rec_basis" >
     <v>       0.29914272       0.00000000       0.00000000 </v>
     <v>       0.00000000       0.03067258       0.00000000 </v>
     <v>       0.00000000       0.00000000       0.22858026 </v>
    </varray>
   </crystal>
   <varray name="positions" >
    <v>       0.00000000       0.30672600       0.91892400 </v>
    <v>       0.50000000       0.30672600       0.58107600 </v>
    <v>       0.00000000       0.37246700       0.08107600 </v>
    <v>       0.50000000       0.37246700       0.41892400 </v>
    <v>       0.50000000       0.46712900       0.41892400 </v>
    <v>       0.00000000       0.46712900       0.08107600 </v>
    <v>       0.50000000       0.53287100       0.58107600 </v>
    <v>       0.00000000       0.53287100       0.91892400 </v>
    <v>       0.00000000       0.62753300       0.91892400 </v>
    <v>       0.50000000       0.62753300       0.58107600 </v>
    <v>       0.00000000       0.69327400       0.08107600 </v>
    <v>       0.50000000       0.69327400       0.41892400 </v>
   </varray>
  </structure>
  <varray name="forces" >
   <v>       0.00000000      -0.09477187      -0.10669187 </v>
   <v>       0.00000000      -0.09477187       0.10669187 </v>
   <v>       0.00000000      -0.29631222      -0.06200106 </v>
   <v>       0.00000000      -0.29631222       0.06200106 </v>
   <v>       0.00000000       0.19035858       0.05288008 </v>
   <v>       0.00000000       0.19035858      -0.05288008 </v>
   <v>       0.00000000      -0.19035858      -0.05288008 </v>
   <v>       0.00000000      -0.19035858       0.05288008 </v>
   <v>       0.00000000       0.29631222       0.06200106 </v>
   <v>       0.00000000       0.29631222      -0.06200106 </v>
   <v>       0.00000000       0.09477187       0.10669187 </v>
   <v>       0.00000000       0.09477187      -0.10669187 </v>
  </varray>
  <varray name="stress" >
   <v>      -5.63412488       0.00000000       0.00000000 </v>
   <v>       0.00000000      21.69127250       0.00000000 </v>
   <v>       0.00000000       0.00000000       1.96959615 </v>
  </varray>
  <energy>
   <i name="e_fr_energy">    -65.86845841 </i>
   <i name="e_wo_entrp">    -65.86845841 </i>
   <i name="e_0_energy">     -0.00000000 </i>
  </energy>
  <time name="totalsc">   20.14   20.48</time>
  <eigenvalues>
   <array>
    <dimension dim="1">band</dimension>
    <dimension dim="2">kpoint</dimension>
    <dimension dim="3">spin</dimension>
    <field>eigene</field>
    <field>occ</field>
    <set>
     <set comment="spin 1">
      <set comment="kpoint 1">
       <r>  -14.9566    1.0000 </r>
       <r>  -14.7795    1.0000 </r>
       <r>  -14.6838    1.0000 </r>
       <r>  -12.5643    1.0000 </r>
       <r>  -12.1871    1.0000 </r>
       <r>  -11.9336    1.0000 </r>
       <r>   -8.6864    1.0000 </r>
       <r>   -8.5541    1.0000 </r>
       <r>   -8.4986    1.0000 </r>
       <r>   -6.3021    1.0000 </r>
       <r>   -5.6081    1.0000 </r>
       <r>   -4.8723    1.0000 </r>
       <r>   -4.7859    1.0000 </r>
       <r>   -4.6012    1.0000 </r>
       <r>   -4.2781    1.0000 </r>
       <r>   -4.2148    1.0000 </r>
       <r>   -3.9882    1.0000 </r>
       <r>   -3.8219    1.0000 </r>
       <r>   -3.4902    1.0000 </r>
       <r>   -3.3373    1.0000 </r>
       <r>   -3.2659    1.0000 </r>
       <r>   -2.0703    1.0000 </r>
       <r>   -1.8638    1.0000 </r>
       <r>   -1.6323    1.0000 </r>
       <r>   -1.5255    1.0000 </r>
       <r>   -1.5181    1.0000 </r>
       <r>   -0.8992    1.0000 </r>
       <r>   -0.5913    1.0000 </r>
       <r>    0.1363    1.0000 </r>
       <r>    0.3199    1.0000 </r>
       <r>    1.0433    0.0000 </r>
       <r>    1.3349    0.0000 </r>
       <r>    1.3432    0.0000 </r>
       <r>    1.5960    0.0000 </r>
       <r>    2.0072    0.0000 </r>
       <r>    2.5495    0.0000 </r>
       <r>    2.5958    0.0000 </r>
       <r>    2.8819    0.0000 </r>
       <r>    3.0352    0.0000 </r>
       <r>    3.6271    0.0000 </r>
      </set>
      <set comment="kpoint 2">
       <r>  -14.7188    1.0000 </r>
       <r>  -14.5424    1.0000 </r>
       <r>  -14.4474    1.0000 </r>
       <r>  -12.3179    1.0000 </r>
       <r>  -11.9409    1.0000 </r>
       <r>  -11.6873    1.0000 </r>
       <r>   -8.9111    1.0000 </r>
       <r>   -8.7759    1.0000 </r>
       <r>   -8.7186    1.0000 </r>
       <r>   -6.0999    1.0000 </r>
       <r>   -5.4134    1.0000 </r>
       <r>   -5.2069    1.0000 </r>
       <r>   -4.7393    1.0000 </r>
       <r>   -4.6979    1.0000 </r>
       <r>   -4.3982    1.0000 </r>
       <r>   -4.3974    1.0000 </r>
       <r>   -4.3352    1.0000 </r>
       <r>   -4.2373    1.0000 </r>
       <r>   -4.1596    1.0000 </r>
       <r>   -4.0189    1.0000 </r>
       <r>   -3.7842    1.0000 </r>
       <r>   -2.7006    1.0000 </r>
       <r>   -2.4272    1.0000 </r>
       <r>   -2.2362    1.0000 </r>
       <r>   -1.9636    1.0000 </r>
       <r>   -1.4214    1.0000 </r>
       <r>   -0.7950    1.0000 </r>
       <r>   -0.7526    1.0000 </r>
       <r>    0.1848    1.0000 </r>
       <r>    0.3623    1.0000 </r>
       <r>    1.0614    0.0000 </r>
       <r>    1.5449    0.0000 </r>
       <r>    2.4928    0.0000 </r>
       <r>    2.6176    0.0000 </r>
       <r>    2.7834    0.0000 </r>
       <r>    2.8767    0.0000 </r>
       <r>    3.0750    0.0000 </r>
       <r>    3.2831    0.0000 </r>
       <r>    3.5358    0.0000 </r>
       <r>    3.9572    0.0000 </r>
      </set>
      <set comment="kpoint 3">
       <r>  -14.0146    1.0000 </r>
       <r>  -13.8403    1.0000 </r>
       <r>  -13.7475    1.0000 </r>
       <r>  -11.5839    1.0000 </r>
       <r>  -11.2071    1.0000 </r>
       <r>  -10.9530    1.0000 </r>
       <r>   -9.8747    1.0000 </r>
       <r>   -9.7261    1.0000 </r>
       <r>   -9.6582    1.0000 </r>
       <r>   -6.8324    1.0000 </r>
       <r>   -6.4320    1.0000 </r>
       <r>   -6.1364    1.0000 </r>
       <r>   -5.5312    1.0000 </r>
       <r>   -5.0718    1.0000 </r>
       <r>   -4.9029    1.0000 </r>
       <r>   -4.8816    1.0000 </r>
       <r>   -4.8248    1.0000 </r>
       <r>   -4.2611    1.0000 </r>
       <r>   -3.8327    1.0000 </r>
       <r>   -3.4826    1.0000 </r>
       <r>   -3.2141    1.0000 </r>
       <r>   -2.9171    1.0000 </r>
       <r>   -2.5993    1.0000 </r>
       <r>   -2.2687    1.0000 </r>
       <r>   -1.9166    1.0000 </r>
       <r>   -1.3879    1.0000 </r>
       <r>   -1.3515    1.0000 </r>
       <r>   -0.7848    1.0000 </r>
       <r>   -0.4385    1.0000 </r>
       <r>    0.4375    1.0000 </r>
       <r>    1.0188    0.0000 </r>
       <r>    1.1547    0.0000 </r>
       <r>    1.4422    0.0000 </r>
       <r>    1.6475    0.0000 </r>
       <r>    2.2041    0.0000 </r>
       <r>    2.6971    0.0000 </r>
       <r>    3.0344    0.0000 </r>
       <r>    3.1002    0.0000 </r>
       <r>    3.3085    0.0000 </r>
       <r>    3.3366    0.0000 </r>
      </set>
      <set comment="kpoint 4">
       <r>  -12.8785    1.0000 </r>
       <r>  -12.7084    1.0000 </r>
       <r>  -12.6200    1.0000 </r>
       <r>  -11.4050    1.0000 </r>
       <r>  -11.2427    1.0000 </r>
       <r>  -11.1622    1.0000 </r>
       <r>  -10.3800    1.0000 </r>
       <r>  -10.0026    1.0000 </r>
       <r>   -9.7463    1.0000 </r>
       <r>   -8.7507    1.0000 </r>
       <r>   -8.3691    1.0000 </r>
       <r>   -8.1049    1.0000 </r>
       <r>   -4.8207    1.0000 </r>
       <r>   -4.7980    1.0000 </r>
       <r>   -4.5895    1.0000 </r>
       <r>   -4.4898    1.0000 </r>
       <r>   -4.3407    1.0000 </r>
       <r>   -4.0209    1.0000 </r>
       <r>   -3.1494    1.0000 </r>
       <r>   -2.9396    1.0000 </r>
       <r>   -2.7558    1.0000 </r>
       <r>   -2.6745    1.0000 </r>
       <r>   -2.4892    1.0000 </r>
       <r>   -2.2850    1.0000 </r>
       <r>   -2.0741    1.0000 </r>
       <r>   -1.9949    1.0000 </r>
       <r>   -1.7052    1.0000 </r>
       <r>   -1.3036    1.0000 </r>
       <r>   -1.0747    1.0000 </r>
       <r>   -0.5335    1.0000 </r>
       <r>    1.3179    0.0000 </r>
       <r>    1.3369    0.0000 </r>
       <r>    1.4648    0.0000 </r>
       <r>    1.7221    0.0000 </r>
       <r>    1.7324    0.0000 </r>
       <r>    1.9083    0.0000 </r>
       <r>    2.0664    0.0000 </r>
       <r>    2.0898    0.0000 </r>
       <r>    2.2349    0.0000 </r>
       <r>    2.3333    0.0000 </r>
      </set>
      <set comment="kpoint 5">
       <r>  -14.8059    1.0000 </r>
       <r>  -14.6271    1.0000 </r>
       <r>  -14.5284    1.0000 </r>
       <r>  -12.6631    1.0000 </r>
       <r>  -12.3206    1.0000 </r>
       <r>  -12.1053    1.0000 </r>
       <r>   -8.9767    1.0000 </r>
       <r>   -8.7809    1.0000 </r>
       <r>   -8.6521    1.0000 </r>
       <r>   -6.7166    1.0000 </r>
       <r>   -6.1551    1.0000 </r>
       <r>   -5.6807    1.0000 </r>
       <r>   -4.9498    1.0000 </r>
       <r>   -4.3486    1.0000 </r>
       <r>   -3.7972    1.0000 </r>
       <r>   -3.7067    1.0000 </r>
       <r>   -3.3714    1.0000 </r>
       <r>   -3.3049    1.0000 </r>
       <r>   -3.2230    1.0000 </r>
       <r>   -3.2175    1.0000 </r>
       <r>   -3.1436    1.0000 </r>
       <r>   -1.9232    1.0000 </r>
       <r>   -1.7025    1.0000 </r>
       <r>   -1.5988    1.0000 </r>
       <r>   -1.5973    1.0000 </r>
       <r>   -1.3253    1.0000 </r>
       <r>   -0.7251    1.0000 </r>
       <r>   -0.6212    1.0000 </r>
       <r>   -0.0856    1.0000 </r>
       <r>    0.4451    1.0000 </r>
       <r>    0.8641    0.0000 </r>
       <r>    1.5767    0.0000 </r>
       <r>    1.6936    0.0000 </r>
       <r>    2.0242    0.0000 </r>
       <r>    2.0419    0.0000 </r>
       <r>    2.3483    0.0000 </r>
       <r>    2.5474    0.0000 </r>
       <r>    2.7439    0.0000 </r>
       <r>    3.3586    0.0000 </r>
       <r>    3.3869    0.0000 </r>
      </set>
      <set comment="kpoint 6">
       <r>  -14.5696    1.0000 </r>
       <r>  -14.3914    1.0000 </r>
       <r>  -14.2935    1.0000 </r>
       <r>  -12.4235    1.0000 </r>
       <r>  -12.0831    1.0000 </r>
       <r>  -11.8699    1.0000 </r>
       <r>   -9.0739    1.0000 </r>
       <r>   -8.8822    1.0000 </r>
       <r>   -8.7606    1.0000 </r>
       <r>   -6.6148    1.0000 </r>
       <r>   -6.0860    1.0000 </r>
       <r>   -5.6427    1.0000 </r>
       <r>   -5.0576    1.0000 </r>
       <r>   -4.8620    1.0000 </r>
       <r>   -4.6013    1.0000 </r>
       <r>   -4.4993    1.0000 </r>
       <r>   -4.3045    1.0000 </r>
       <r>   -3.6744    1.0000 </r>
       <r>   -3.2636    1.0000 </r>
       <r>   -3.0806    1.0000 </r>
       <r>   -2.9707    1.0000 </r>
       <r>   -2.8438    1.0000 </r>
       <r>   -2.7023    1.0000 </r>
       <r>   -2.4777    1.0000 </r>
       <r>   -1.5880    1.0000 </r>
       <r>   -1.3661    1.0000 </r>
       <r>   -0.7931    1.0000 </r>
       <r>   -0.6341    1.0000 </r>
       <r>   -0.1677    1.0000 </r>
       <r>    0.4661    1.0000 </r>
       <r>    0.9959    0.0000 </r>
       <r>    2.1000    0.0000 </r>
       <r>    2.3916    0.0000 </r>
       <r>    2.6000    0.0000 </r>
       <r>    2.7675    0.0000 </r>
       <r>    3.1557    0.0000 </r>
       <r>    3.3632    0.0000 </r>
       <r>    3.3818    0.0000 </r>
       <r>    3.5944    0.0000 </r>
       <r>    3.9827    0.0000 </r>
      </set>
      <set comment="kpoint 7">
       <r>  -13.8712    1.0000 </r>
       <r>  -13.6954    1.0000 </r>
       <r>  -13.6000    1.0000 </r>
       <r>  -11.7298    1.0000 </r>
       <r>  -11.4037    1.0000 </r>
       <r>  -11.2056    1.0000 </r>
       <r>   -9.7495    1.0000 </r>
       <r>   -9.5534    1.0000 </r>
       <r>   -9.4327    1.0000 </r>
       <r>   -7.1164    1.0000 </r>
       <r>   -6.7216    1.0000 </r>
       <r>   -6.4270    1.0000 </r>
       <r>   -5.6638    1.0000 </r>
       <r>   -5.4962    1.0000 </r>
       <r>   -5.3322    1.0000 </r>
       <r>   -5.2926    1.0000 </r>
       <r>   -4.7703    1.0000 </r>
       <r>   -4.2888    1.0000 </r>
       <r>   -3.4640    1.0000 </r>
       <r>   -3.1571    1.0000 </r>
       <r>   -2.8881    1.0000 </r>
       <r>   -2.7607    1.0000 </r>
       <r>   -2.5629    1.0000 </r>
       <r>   -2.4377    1.0000 </r>
       <r>   -2.0003    1.0000 </r>
       <r>   -1.7832    1.0000 </r>
       <r>   -1.3388    1.0000 </r>
       <r>   -0.9851    1.0000 </r>
       <r>   -0.5721    1.0000 </r>
       <r>    0.2288    1.0000 </r>
       <r>    1.2922    0.0000 </r>
       <r>    1.8625    0.0000 </r>
       <r>    2.1014    0.0000 </r>
       <r>    2.2928    0.0000 </r>
       <r>    2.3223    0.0000 </r>
       <r>    2.4835    0.0000 </r>
       <r>    2.5958    0.0000 </r>
       <r>    2.8660    0.0000 </r>
       <r>    3.5193    0.0000 </r>
       <r>    3.5586    0.0000 </r>
      </set>
      <set comment="kpoint 8">
       <r>  -12.7548    1.0000 </r>
       <r>  -12.5840    1.0000 </r>
       <r>  -12.4939    1.0000 </r>
       <r>  -11.4181    1.0000 </r>
       <r>  -11.2489    1.0000 </r>
       <r>  -11.1653    1.0000 </r>
       <r>  -10.2998    1.0000 </r>
       <r>   -9.9430    1.0000 </r>
       <r>   -9.7050    1.0000 </r>
       <r>   -8.8200    1.0000 </r>
       <r>   -8.4555    1.0000 </r>
       <r>   -8.2103    1.0000 </r>
       <r>   -5.2835    1.0000 </r>
       <r>   -5.0728    1.0000 </r>
       <r>   -4.8907    1.0000 </r>
       <r>   -4.8552    1.0000 </r>
       <r>   -4.4318    1.0000 </r>
       <r>   -4.1476    1.0000 </r>
       <r>   -3.6150    1.0000 </r>
       <r>   -3.3666    1.0000 </r>
       <r>   -3.2295    1.0000 </r>
       <r>   -2.9478    1.0000 </r>
       <r>   -2.8763    1.0000 </r>
       <r>   -2.4904    1.0000 </r>
       <r>   -2.2219    1.0000 </r>
       <r>   -1.8316    1.0000 </r>
       <r>   -1.5016    1.0000 </r>
       <r>   -1.0486    1.0000 </r>
       <r>   -0.7587    1.0000 </r>
       <r>   -0.2253    1.0000 </r>
       <r>    1.1516    0.0000 </r>
       <r>    1.5850    0.0000 </r>
       <r>    1.7425    0.0000 </r>
       <r>    1.9123    0.0000 </r>
       <r>    2.0000    0.0000 </r>
       <r>    2.2349    0.0000 </r>
       <r>    2.3735    0.0000 </r>
       <r>    2.6004    0.0000 </r>
       <r>    2.9860    0.0000 </r>
       <r>    3.0381    0.0000 </r>
      </set>
      <set comment="kpoint 9">
       <r>  -14.3771    1.0000 </r>
       <r>  -14.1934    1.0000 </r>
       <r>  -14.0795    1.0000 </r>
       <r>  -13.0496    1.0000 </r>
       <r>  -12.7873    1.0000 </r>
       <r>  -12.6498    1.0000 </r>
       <r>   -9.1506    1.0000 </r>
       <r>   -8.8416    1.0000 </r>
       <r>   -8.5957    1.0000 </r>
       <r>   -7.7576    1.0000 </r>
       <r>   -7.3117    1.0000 </r>
       <r>   -6.9439    1.0000 </r>
       <r>   -4.6007    1.0000 </r>
       <r>   -3.7441    1.0000 </r>
       <r>   -3.0443    1.0000 </r>
       <r>   -2.8895    1.0000 </r>
       <r>   -2.8105    1.0000 </r>
       <r>   -2.8019    1.0000 </r>
       <r>   -2.7722    1.0000 </r>
       <r>   -2.4128    1.0000 </r>
       <r>   -2.1425    1.0000 </r>
       <r>   -2.0977    1.0000 </r>
       <r>   -1.9850    1.0000 </r>
       <r>   -1.9513    1.0000 </r>
       <r>   -1.8745    1.0000 </r>
       <r>   -1.7962    1.0000 </r>
       <r>   -0.7502    1.0000 </r>
       <r>   -0.1636    1.0000 </r>
       <r>    0.3154    1.0000 </r>
       <r>    0.5854    1.0000 </r>
       <r>    1.3867    0.0000 </r>
       <r>    1.5202    0.0000 </r>
       <r>    2.0412    0.0000 </r>
       <r>    2.1790    0.0000 </r>
       <r>    2.3068    0.0000 </r>
       <r>    2.4158    0.0000 </r>
       <r>    2.5170    0.0000 </r>
       <r>    3.0790    0.0000 </r>
       <r>    3.1917    0.0000 </r>
       <r>    3.2807    0.0000 </r>
      </set>
      <set comment="kpoint 10">
       <r>  -14.1447    1.0000 </r>
       <r>  -13.9620    1.0000 </r>
       <r>  -13.8492    1.0000 </r>
       <r>  -12.8220    1.0000 </r>
       <r>  -12.5628    1.0000 </r>
       <r>  -12.4276    1.0000 </r>
       <r>   -9.1044    1.0000 </r>
       <r>   -8.8017    1.0000 </r>
       <r>   -8.5667    1.0000 </r>
       <r>   -7.6589    1.0000 </r>
       <r>   -7.2223    1.0000 </r>
       <r>   -6.8662    1.0000 </r>
       <r>   -4.6646    1.0000 </r>
       <r>   -4.5884    1.0000 </r>
       <r>   -4.4114    1.0000 </r>
       <r>   -4.3255    1.0000 </r>
       <r>   -3.7550    1.0000 </r>
       <r>   -3.5088    1.0000 </r>
       <r>   -3.3299    1.0000 </r>
       <r>   -3.1941    1.0000 </r>
       <r>   -2.6653    1.0000 </r>
       <r>   -2.6153    1.0000 </r>
       <r>   -1.8784    1.0000 </r>
       <r>   -1.8422    1.0000 </r>
       <r>   -1.5132    1.0000 </r>
       <r>   -1.4957    1.0000 </r>
       <r>   -0.7258    1.0000 </r>
       <r>   -0.7182    1.0000 </r>
       <r>   -0.1224    1.0000 </r>
       <r>    0.0452    1.0000 </r>
       <r>    1.9199    0.0000 </r>
       <r>    2.7510    0.0000 </r>
       <r>    2.7689    0.0000 </r>
       <r>    3.0395    0.0000 </r>
       <r>    3.1979    0.0000 </r>
       <r>    3.2256    0.0000 </r>
       <r>    3.3114    0.0000 </r>
       <r>    3.4868    0.0000 </r>
       <r>    3.5345    0.0000 </r>
       <r>    3.6914    0.0000 </r>
      </set>
      <set comment="kpoint 11">
       <r>  -13.4637    1.0000 </r>
       <r>  -13.2841    1.0000 </r>
       <r>  -13.1755    1.0000 </r>
       <r>  -12.1786    1.0000 </r>
       <r>  -11.9343    1.0000 </r>
       <r>  -11.8104    1.0000 </r>
       <r>   -9.3415    1.0000 </r>
       <r>   -9.0631    1.0000 </r>
       <r>   -8.8678    1.0000 </r>
       <r>   -7.8226    1.0000 </r>
       <r>   -7.4504    1.0000 </r>
       <r>   -7.1769    1.0000 </r>
       <r>   -5.9859    1.0000 </r>
       <r>   -5.7366    1.0000 </r>
       <r>   -5.5499    1.0000 </r>
       <r>   -5.3500    1.0000 </r>
       <r>   -4.9504    1.0000 </r>
       <r>   -4.6734    1.0000 </r>
       <r>   -3.8809    1.0000 </r>
       <r>   -3.3364    1.0000 </r>
       <r>   -2.7944    1.0000 </r>
       <r>   -2.6966    1.0000 </r>
       <r>   -2.3002    1.0000 </r>
       <r>   -2.1559    1.0000 </r>
       <r>   -2.0873    1.0000 </r>
       <r>   -1.8648    1.0000 </r>
       <r>   -1.3763    1.0000 </r>
       <r>   -1.1850    1.0000 </r>
       <r>   -0.6265    1.0000 </r>
       <r>   -0.0451    1.0000 </r>
       <r>    1.8104    0.0000 </r>
       <r>    2.1747    0.0000 </r>
       <r>    2.3242    0.0000 </r>
       <r>    2.5944    0.0000 </r>
       <r>    2.9611    0.0000 </r>
       <r>    3.4296    0.0000 </r>
       <r>    3.6527    0.0000 </r>
       <r>    3.7459    0.0000 </r>
       <r>    3.9770    0.0000 </r>
       <r>    4.1125    0.0000 </r>
      </set>
      <set comment="kpoint 12">
       <r>  -12.4157    1.0000 </r>
       <r>  -12.2439    1.0000 </r>
       <r>  -12.1451    1.0000 </r>
       <r>  -11.5632    1.0000 </r>
       <r>  -11.3843    1.0000 </r>
       <r>  -11.2976    1.0000 </r>
       <r>  -10.0244    1.0000 </r>
       <r>   -9.7125    1.0000 </r>
       <r>   -9.5098    1.0000 </r>
       <r>   -9.0860    1.0000 </r>
       <r>   -8.7635    1.0000 </r>
       <r>   -8.5611    1.0000 </r>
       <r>   -5.7440    1.0000 </r>
       <r>   -5.4589    1.0000 </r>
       <r>   -5.2219    1.0000 </r>
       <r>   -5.0530    1.0000 </r>
       <r>   -4.6296    1.0000 </r>
       <r>   -4.5250    1.0000 </r>
       <r>   -4.3307    1.0000 </r>
       <r>   -4.2287    1.0000 </r>
       <r>   -3.8934    1.0000 </r>
       <r>   -3.7983    1.0000 </r>
       <r>   -3.3916    1.0000 </r>
       <r>   -3.0301    1.0000 </r>
       <r>   -2.3233    1.0000 </r>
       <r>   -1.8203    1.0000 </r>
       <r>   -1.4238    1.0000 </r>
       <r>   -0.9288    1.0000 </r>
       <r>   -0.5473    1.0000 </r>
       <r>   -0.0158    1.0000 </r>
       <r>    1.5425    0.0000 </r>
       <r>    2.2888    0.0000 </r>
       <r>    2.4228    0.0000 </r>
       <r>    2.6234    0.0000 </r>
       <r>    2.8904    0.0000 </r>
       <r>    3.1306    0.0000 </r>
       <r>    3.3695    0.0000 </r>
       <r>    3.8419    0.0000 </r>
       <r>    3.9028    0.0000 </r>
       <r>    4.0069    0.0000 </r>
      </set>
      <set comment="kpoint 13">
       <r>  -13.8053    1.0000 </r>
       <r>  -13.8053    1.0000 </r>
       <r>  -13.4455    1.0000 </r>
       <r>  -13.4455    1.0000 </r>
       <r>  -13.3832    1.0000 </r>
       <r>  -13.3832    1.0000 </r>
       <r>   -8.6962    1.0000 </r>
       <r>   -8.6962    1.0000 </r>
       <r>   -8.3054    1.0000 </r>
       <r>   -8.3054    1.0000 </r>
       <r>   -7.9860    1.0000 </r>
       <r>   -7.9860    1.0000 </r>
       <r>   -3.8244    1.0000 </r>
       <r>   -3.8244    1.0000 </r>
       <r>   -2.9056    1.0000 </r>
       <r>   -2.9056    1.0000 </r>
       <r>   -2.6440    1.0000 </r>
       <r>   -2.6440    1.0000 </r>
       <r>   -2.3362    1.0000 </r>
       <r>   -2.3362    1.0000 </r>
       <r>   -2.3227    1.0000 </r>
       <r>   -2.3227    1.0000 </r>
       <r>   -1.9667    1.0000 </r>
       <r>   -1.9667    1.0000 </r>
       <r>   -0.9951    1.0000 </r>
       <r>   -0.9951    1.0000 </r>
       <r>   -0.5973    1.0000 </r>
       <r>   -0.5973    1.0000 </r>
       <r>   -0.1518    1.0000 </r>
       <r>   -0.1518    1.0000 </r>
       <r>    1.6372    0.0000 </r>
       <r>    1.6372    0.0000 </r>
       <r>    2.3259    0.0000 </r>
       <r>    2.3259    0.0000 </r>
       <r>    2.5945    0.0000 </r>
       <r>    2.5945    0.0000 </r>
       <r>    3.3105    0.0000 </r>
       <r>    3.3106    0.0000 </r>
       <r>    3.3209    0.0000 </r>
       <r>    3.3211    0.0000 </r>
      </set>
      <set comment="kpoint 14">
       <r>  -13.5769    1.0000 </r>
       <r>  -13.5769    1.0000 </r>
       <r>  -13.2211    1.0000 </r>
       <r>  -13.2211    1.0000 </r>
       <r>  -13.1600    1.0000 </r>
       <r>  -13.1600    1.0000 </r>
       <r>   -8.5947    1.0000 </r>
       <r>   -8.5947    1.0000 </r>
       <r>   -8.2119    1.0000 </r>
       <r>   -8.2119    1.0000 </r>
       <r>   -7.9031    1.0000 </r>
       <r>   -7.9031    1.0000 </r>
       <r>   -4.2191    1.0000 </r>
       <r>   -4.2191    1.0000 </r>
       <r>   -3.9532    1.0000 </r>
       <r>   -3.9532    1.0000 </r>
       <r>   -3.8288    1.0000 </r>
       <r>   -3.8288    1.0000 </r>
       <r>   -3.6086    1.0000 </r>
       <r>   -3.6086    1.0000 </r>
       <r>   -2.7746    1.0000 </r>
       <r>   -2.7746    1.0000 </r>
       <r>   -1.8887    1.0000 </r>
       <r>   -1.8887    1.0000 </r>
       <r>   -1.0410    1.0000 </r>
       <r>   -1.0410    1.0000 </r>
       <r>   -0.5460    1.0000 </r>
       <r>   -0.5460    1.0000 </r>
       <r>    0.0094    1.0000 </r>
       <r>    0.0094    1.0000 </r>
       <r>    2.6305    0.0000 </r>
       <r>    2.6305    0.0000 </r>
       <r>    2.7557    0.0000 </r>
       <r>    2.7557    0.0000 </r>
       <r>    3.0326    0.0000 </r>
       <r>    3.0326    0.0000 </r>
       <r>    3.1130    0.0000 </r>
       <r>    3.1130    0.0000 </r>
       <r>    3.9452    0.0000 </r>
       <r>    3.9453    0.0000 </r>
      </set>
      <set comment="kpoint 15">
       <r>  -12.9168    1.0000 </r>
       <r>  -12.9168    1.0000 </r>
       <r>  -12.5785    1.0000 </r>
       <r>  -12.5785    1.0000 </r>
       <r>  -12.5214    1.0000 </r>
       <r>  -12.5214    1.0000 </r>
       <r>   -8.6579    1.0000 </r>
       <r>   -8.6579    1.0000 </r>
       <r>   -8.3134    1.0000 </r>
       <r>   -8.3134    1.0000 </r>
       <r>   -8.0747    1.0000 </r>
       <r>   -8.0747    1.0000 </r>
       <r>   -5.7593    1.0000 </r>
       <r>   -5.7593    1.0000 </r>
       <r>   -5.4584    1.0000 </r>
       <r>   -5.4584    1.0000 </r>
       <r>   -5.2612    1.0000 </r>
       <r>   -5.2612    1.0000 </r>
       <r>   -3.5080    1.0000 </r>
       <r>   -3.5080    1.0000 </r>
       <r>   -2.7906    1.0000 </r>
       <r>   -2.7906    1.0000 </r>
       <r>   -2.2919    1.0000 </r>
       <r>   -2.2919    1.0000 </r>
       <r>   -2.1365    1.0000 </r>
       <r>   -2.1365    1.0000 </r>
       <r>   -1.2894    1.0000 </r>
       <r>   -1.2894    1.0000 </r>
       <r>   -0.4434    1.0000 </r>
       <r>   -0.4434    1.0000 </r>
       <r>    2.5468    0.0000 </r>
       <r>    2.5468    0.0000 </r>
       <r>    3.3161    0.0000 </r>
       <r>    3.3161    0.0000 </r>
       <r>    3.5391    0.0000 </r>
       <r>    3.5391    0.0000 </r>
       <r>    3.7960    0.0000 </r>
       <r>    3.7960    0.0000 </r>
       <r>    4.0055    0.0000 </r>
       <r>    4.0055    0.0000 </r>
      </set>
      <set comment="kpoint 16">
       <r>  -11.9912    1.0000 </r>
       <r>  -11.9912    1.0000 </r>
       <r>  -11.7356    1.0000 </r>
       <r>  -11.7356    1.0000 </r>
       <r>  -11.6753    1.0000 </r>
       <r>  -11.6753    1.0000 </r>
       <r>   -9.5740    1.0000 </r>
       <r>   -9.5740    1.0000 </r>
       <r>   -9.2460    1.0000 </r>
       <r>   -9.2460    1.0000 </r>
       <r>   -9.0767    1.0000 </r>
       <r>   -9.0767    1.0000 </r>
       <r>   -5.5912    1.0000 </r>
       <r>   -5.5912    1.0000 </r>
       <r>   -5.2377    1.0000 </r>
       <r>   -5.2377    1.0000 </r>
       <r>   -4.9478    1.0000 </r>
       <r>   -4.9478    1.0000 </r>
       <r>   -4.4435    1.0000 </r>
       <r>   -4.4435    1.0000 </r>
       <r>   -4.0199    1.0000 </r>
       <r>   -4.0199    1.0000 </r>
       <r>   -3.7034    1.0000 </r>
       <r>   -3.7034    1.0000 </r>
       <r>   -2.0941    1.0000 </r>
       <r>   -2.0941    1.0000 </r>
       <r>   -1.1742    1.0000 </r>
       <r>   -1.1742    1.0000 </r>
       <r>   -0.2530    1.0000 </r>
       <r>   -0.2530    1.0000 </r>
       <r>    1.8309    0.0000 </r>
       <r>    1.8309    0.0000 </r>
       <r>    2.8226    0.0000 </r>
       <r>    2.8226    0.0000 </r>
       <r>    3.8695    0.0000 </r>
       <r>    3.8695    0.0000 </r>
       <r>    4.3754    0.0000 </r>
       <r>    4.3754    0.0000 </r>
       <r>    4.6119    0.0000 </r>
       <r>    4.6908    0.0000 </r>
      </set>
     </set>
    </set>
   </array>
  </eigenvalues>
  <separator name="orbital magnetization" >
   <v name="MAGDIPOLOUT">      0.00000000      0.00000000      0.00000000</v>
  </separator>
  <dos>
   <i name="efermi">      0.63536516 </i>
   <total>
    <array>
     <dimension dim="1">gridpoints</dimension>
     <dimension dim="2">spin</dimension>
     <field>energy</field>
     <field>total</field>
     <field>integrated</field>
     <set>
      <set comment="spin 1">
       <r>   -15.9389     0.0000     0.0000 </r>
       <r>   -15.9281     0.0000     0.0000 </r>
       <r>   -15.9173     0.0000     0.0000 </r>
       <r>   -15.9065     0.0000     0.0000 </r>
       <r>   -15.8957     0.0000     0.0000 </r>
       <r>   -15.8849     0.0000     0.0000 </r>
       <r>   -15.8741     0.0000     0.0000 </r>
       <r>   -15.8633     0.0000     0.0000 </r>
       <r>   -15.8524     0.0000     0.0000 </r>
       <r>   -15.8416     0.0000     0.0000 </r>
       <r>   -15.8308     0.0000     0.0000 </r>
       <r>   -15.8200     0.0000     0.0000 </r>
       <r>   -15.8092     0.0000     0.0000 </r>
       <r>   -15.7984     0.0000     0.0000 </r>
       <r>   -15.7876     0.0000     0.0000 </r>
       <r>   -15.7768     0.0000     0.0000 </r>
       <r>   -15.7660     0.0000     0.0000 </r>
       <r>   -15.7551     0.0000     0.0000 </r>
       <r>   -15.7443     0.0000     0.0000 </r>
       <r>   -15.7335     0.0000     0.0000 </r>
       <r>   -15.7227     0.0000     0.0000 </r>
       <r>   -15.7119     0.0000     0.0000 </r>
       <r>   -15.7011     0.0000     0.0000 </r>
       <r>   -15.6903     0.0000     0.0000 </r>
       <r>   -15.6795     0.0000     0.0000 </r>
       <r>   -15.6686     0.0000     0.0000 </r>
       <r>   -15.6578     0.0000     0.0000 </r>
       <r>   -15.6470     0.0000     0.0000 </r>
       <r>   -15.6362     0.0000     0.0000 </r>
       <r>   -15.6254     0.0000     0.0000 </r>
       <r>   -15.6146     0.0000     0.0000 </r>
       <r>   -15.6038     0.0000     0.0000 </r>
       <r>   -15.5930     0.0000     0.0000 </r>
       <r>   -15.5822     0.0000     0.0000 </r>
       <r>   -15.5713     0.0000     0.0000 </r>
       <r>   -15.5605     0.0000     0.0000 </r>
       <r>   -15.5497     0.0000     0.0000 </r>
       <r>   -15.5389     0.0000     0.0000 </r>
       <r>   -15.5281     0.0000     0.0000 </r>
       <r>   -15.5173     0.0000     0.0000 </r>
       <r>   -15.5065     0.0000     0.0000 </r>
       <r>   -15.4957     0.0000     0.0000 </r>
       <r>   -15.4849     0.0000     0.0000 </r>
       <r>   -15.4740     0.0000     0.0000 </r>
       <r>   -15.4632     0.0000     0.0000 </r>
       <r>   -15.4524     0.0000     0.0000 </r>
       <r>   -15.4416     0.0000     0.0000 </r>
       <r>   -15.4308     0.0000     0.0000 </r>
       <r>   -15.4200     0.0000     0.0000 </r>
       <r>   -15.4092     0.0000     0.0000 </r>
       <r>   -15.3984     0.0000     0.0000 </r>
       <r>   -15.3876     0.0000     0.0000 </r>
       <r>   -15.3767     0.0000     0.0000 </r>
       <r>   -15.3659     0.0000     0.0000 </r>
       <r>   -15.3551     0.0000     0.0000 </r>
       <r>   -15.3443     0.0000     0.0000 </r>
       <r>   -15.3335     0.0000     0.0000 </r>
       <r>   -15.3227     0.0000     0.0000 </r>
       <r>   -15.3119     0.0000     0.0000 </r>
       <r>   -15.3011     0.0000     0.0000 </r>
       <r>   -15.2902     0.0000     0.0000 </r>
       <r>   -15.2794     0.0000     0.0000 </r>
       <r>   -15.2686     0.0000     0.0000 </r>
       <r>   -15.2578     0.0000     0.0000 </r>
       <r>   -15.2470     0.0000     0.0000 </r>
       <r>   -15.2362     0.0000     0.0000 </r>
       <r>   -15.2254     0.0000     0.0000 </r>
       <r>   -15.2146     0.0000     0.0000 </r>
       <r>   -15.2038     0.0000     0.0000 </r>
       <r>   -15.1929     0.0000     0.0000 </r>
       <r>   -15.1821     0.0000     0.0000 </r>
       <r>   -15.1713     0.0000     0.0000 </r>
       <r>   -15.1605     0.0000     0.0000 </r>
       <r>   -15.1497     0.0000     0.0000 </r>
       <r>   -15.1389     0.0000     0.0000 </r>
       <r>   -15.1281     0.0000     0.0000 </r>
       <r>   -15.1173     0.0000     0.0000 </r>
       <r>   -15.1065     0.0000     0.0000 </r>
       <r>   -15.0956     0.0000     0.0000 </r>
       <r>   -15.0848     0.0000     0.0000 </r>
       <r>   -15.0740     0.0000     0.0000 </r>
       <r>   -15.0632     0.0000     0.0000 </r>
       <r>   -15.0524     0.0000     0.0000 </r>
       <r>   -15.0416     0.0000     0.0000 </r>
       <r>   -15.0308     0.0000     0.0000 </r>
       <r>   -15.0200     0.0000     0.0000 </r>
       <r>   -15.0092     0.0000     0.0000 </r>
       <r>   -14.9983     0.0000     0.0000 </r>
       <r>   -14.9875     0.0000     0.0000 </r>
       <r>   -14.9767     0.0096     0.0001 </r>
       <r>   -14.9659     0.4015     0.0044 </r>
       <r>   -14.9551     2.1549     0.0277 </r>
       <r>   -14.9443     1.6573     0.0457 </r>
       <r>   -14.9335     0.1789     0.0476 </r>
       <r>   -14.9227     0.0024     0.0476 </r>
       <r>   -14.9118     0.0000     0.0476 </r>
       <r>   -14.9010     0.0000     0.0476 </r>
       <r>   -14.8902     0.0000     0.0476 </r>
       <r>   -14.8794     0.0000     0.0476 </r>
       <r>   -14.8686     0.0000     0.0476 </r>
       <r>   -14.8578     0.0000     0.0476 </r>
       <r>   -14.8470     0.0000     0.0476 </r>
       <r>   -14.8362     0.0001     0.0476 </r>
       <r>   -14.8254     0.0266     0.0479 </r>
       <r>   -14.8145     0.9599     0.0583 </r>
       <r>   -14.8037     4.5015     0.1070 </r>
       <r>   -14.7929     3.1598     0.1411 </r>
       <r>   -14.7821     1.7278     0.1598 </r>
       <r>   -14.7713     2.2968     0.1846 </r>
       <r>   -14.7605     0.5252     0.1903 </r>
       <r>   -14.7497     0.0157     0.1905 </r>
       <r>   -14.7389     0.0200     0.1907 </r>
       <r>   -14.7281     0.8182     0.1995 </r>
       <r>   -14.7172     4.3308     0.2464 </r>
       <r>   -14.7064     3.2889     0.2819 </r>
       <r>   -14.6956     0.5559     0.2879 </r>
       <r>   -14.6848     1.7518     0.3069 </r>
       <r>   -14.6740     2.0847     0.3294 </r>
       <r>   -14.6632     0.3554     0.3332 </r>
       <r>   -14.6524     0.0093     0.3334 </r>
       <r>   -14.6416     0.1797     0.3353 </r>
       <r>   -14.6307     2.4962     0.3623 </r>
       <r>   -14.6199     4.7676     0.4138 </r>
       <r>   -14.6091     1.3159     0.4281 </r>
       <r>   -14.5983     0.0484     0.4286 </r>
       <r>   -14.5875     0.0981     0.4296 </r>
       <r>   -14.5767     2.6609     0.4584 </r>
       <r>   -14.5659     9.5533     0.5617 </r>
       <r>   -14.5551     5.2699     0.6187 </r>
       <r>   -14.5443     3.6202     0.6578 </r>
       <r>   -14.5334     6.3938     0.7269 </r>
       <r>   -14.5226     5.7760     0.7894 </r>
       <r>   -14.5118     1.7784     0.8086 </r>
       <r>   -14.5010     0.0847     0.8095 </r>
       <r>   -14.4902     0.0005     0.8095 </r>
       <r>   -14.4794     0.0000     0.8095 </r>
       <r>   -14.4686     0.0120     0.8097 </r>
       <r>   -14.4578     0.6142     0.8163 </r>
       <r>   -14.4470     3.9933     0.8595 </r>
       <r>   -14.4361     3.6971     0.8994 </r>
       <r>   -14.4253     0.4844     0.9047 </r>
       <r>   -14.4145     0.0177     0.9049 </r>
       <r>   -14.4037     0.7216     0.9127 </r>
       <r>   -14.3929     6.7590     0.9857 </r>
       <r>   -14.3821    10.6082     1.1004 </r>
       <r>   -14.3713     6.4818     1.1705 </r>
       <r>   -14.3605     1.7643     1.1896 </r>
       <r>   -14.3497     0.0819     1.1905 </r>
       <r>   -14.3388     0.0005     1.1905 </r>
       <r>   -14.3280     0.0000     1.1905 </r>
       <r>   -14.3172     0.0070     1.1906 </r>
       <r>   -14.3064     0.5910     1.1969 </r>
       <r>   -14.2956     6.1551     1.2635 </r>
       <r>   -14.2848     8.9455     1.3602 </r>
       <r>   -14.2740     1.8686     1.3804 </r>
       <r>   -14.2632     0.0506     1.3810 </r>
       <r>   -14.2523     0.0002     1.3810 </r>
       <r>   -14.2415     0.0000     1.3810 </r>
       <r>   -14.2307     0.0000     1.3810 </r>
       <r>   -14.2199     0.0008     1.3810 </r>
       <r>   -14.2091     0.1172     1.3822 </r>
       <r>   -14.1983     2.0529     1.4044 </r>
       <r>   -14.1875     4.8803     1.4572 </r>
       <r>   -14.1767     1.6800     1.4753 </r>
       <r>   -14.1659     0.1020     1.4765 </r>
       <r>   -14.1550     1.2442     1.4899 </r>
       <r>   -14.1442     8.0172     1.5766 </r>
       <r>   -14.1334     7.3608     1.6562 </r>
       <r>   -14.1226     0.9561     1.6665 </r>
       <r>   -14.1118     0.0156     1.6667 </r>
       <r>   -14.1010     0.0102     1.6668 </r>
       <r>   -14.0902     0.5597     1.6728 </r>
       <r>   -14.0794     3.8786     1.7148 </r>
       <r>   -14.0686     3.8178     1.7560 </r>
       <r>   -14.0577     0.5332     1.7618 </r>
       <r>   -14.0469     0.0094     1.7619 </r>
       <r>   -14.0361     0.0101     1.7620 </r>
       <r>   -14.0253     0.5559     1.7680 </r>
       <r>   -14.0145     3.8700     1.8099 </r>
       <r>   -14.0037     3.8266     1.8512 </r>
       <r>   -13.9929     0.5370     1.8570 </r>
       <r>   -13.9821     0.0488     1.8576 </r>
       <r>   -13.9713     1.6240     1.8751 </r>
       <r>   -13.9604     8.6446     1.9686 </r>
       <r>   -13.9496     6.5950     2.0399 </r>
       <r>   -13.9388     0.7057     2.0475 </r>
       <r>   -13.9280     0.0094     2.0476 </r>
       <r>   -13.9172     0.0000     2.0476 </r>
       <r>   -13.9064     0.0000     2.0476 </r>
       <r>   -13.8956     0.0049     2.0477 </r>
       <r>   -13.8848     0.4739     2.0528 </r>
       <r>   -13.8739     5.6279     2.1136 </r>
       <r>   -13.8631     9.6775     2.2183 </r>
       <r>   -13.8523     7.9163     2.3039 </r>
       <r>   -13.8415    12.8561     2.4428 </r>
       <r>   -13.8307     6.6326     2.5146 </r>
       <r>   -13.8199     1.0100     2.5255 </r>
       <r>   -13.8091     2.4571     2.5520 </r>
       <r>   -13.7983     4.7879     2.6038 </r>
       <r>   -13.7875     1.3585     2.6185 </r>
       <r>   -13.7766     0.0512     2.6190 </r>
       <r>   -13.7658     0.0428     2.6195 </r>
       <r>   -13.7550     1.2360     2.6329 </r>
       <r>   -13.7442     4.7235     2.6839 </r>
       <r>   -13.7334     2.6067     2.7121 </r>
       <r>   -13.7226     0.1994     2.7143 </r>
       <r>   -13.7118     0.1809     2.7162 </r>
       <r>   -13.7010     3.6079     2.7552 </r>
       <r>   -13.6902     9.7830     2.8610 </r>
       <r>   -13.6793     3.8419     2.9025 </r>
       <r>   -13.6685     0.2038     2.9047 </r>
       <r>   -13.6577     0.0013     2.9048 </r>
       <r>   -13.6469     0.0000     2.9048 </r>
       <r>   -13.6361     0.0000     2.9048 </r>
       <r>   -13.6253     0.0031     2.9048 </r>
       <r>   -13.6145     0.3571     2.9087 </r>
       <r>   -13.6037     4.9798     2.9625 </r>
       <r>   -13.5928     9.7500     3.0679 </r>
       <r>   -13.5820     6.5374     3.1386 </r>
       <r>   -13.5712     9.8769     3.2454 </r>
       <r>   -13.5604     3.5569     3.2838 </r>
       <r>   -13.5496     0.1738     3.2857 </r>
       <r>   -13.5388     0.0010     3.2857 </r>
       <r>   -13.5280     0.0000     3.2857 </r>
       <r>   -13.5172     0.0000     3.2857 </r>
       <r>   -13.5064     0.0000     3.2857 </r>
       <r>   -13.4955     0.0001     3.2857 </r>
       <r>   -13.4847     0.0261     3.2860 </r>
       <r>   -13.4739     1.2896     3.2999 </r>
       <r>   -13.4631     8.1599     3.3882 </r>
       <r>   -13.4523     8.6756     3.4820 </r>
       <r>   -13.4415     5.7304     3.5439 </r>
       <r>   -13.4307     2.3841     3.5697 </r>
       <r>   -13.4199     0.1599     3.5714 </r>
       <r>   -13.4091     0.0024     3.5714 </r>
       <r>   -13.3982     0.1478     3.5730 </r>
       <r>   -13.3874     2.2864     3.5978 </r>
       <r>   -13.3766     4.8343     3.6500 </r>
       <r>   -13.3658     1.4789     3.6660 </r>
       <r>   -13.3550     0.0601     3.6667 </r>
       <r>   -13.3442     0.0003     3.6667 </r>
       <r>   -13.3334     0.0000     3.6667 </r>
       <r>   -13.3226     0.0000     3.6667 </r>
       <r>   -13.3118     0.0008     3.6667 </r>
       <r>   -13.3009     0.1521     3.6683 </r>
       <r>   -13.2901     3.3292     3.7043 </r>
       <r>   -13.2793     9.7561     3.8098 </r>
       <r>   -13.2685     4.1397     3.8545 </r>
       <r>   -13.2577     0.2384     3.8571 </r>
       <r>   -13.2469     0.0039     3.8572 </r>
       <r>   -13.2361     0.2964     3.8604 </r>
       <r>   -13.2253     4.5788     3.9099 </r>
       <r>   -13.2144     9.6671     4.0144 </r>
       <r>   -13.2036     2.9535     4.0463 </r>
       <r>   -13.1928     0.2427     4.0489 </r>
       <r>   -13.1820     3.0056     4.0814 </r>
       <r>   -13.1712    10.6579     4.1967 </r>
       <r>   -13.1604    11.9567     4.3259 </r>
       <r>   -13.1496     8.2514     4.4151 </r>
       <r>   -13.1388     1.2180     4.4283 </r>
       <r>   -13.1280     0.0236     4.4286 </r>
       <r>   -13.1171     0.0001     4.4286 </r>
       <r>   -13.1063     0.0000     4.4286 </r>
       <r>   -13.0955     0.0000     4.4286 </r>
       <r>   -13.0847     0.0000     4.4286 </r>
       <r>   -13.0739     0.0025     4.4286 </r>
       <r>   -13.0631     0.2433     4.4312 </r>
       <r>   -13.0523     2.8435     4.4620 </r>
       <r>   -13.0415     4.6098     4.5118 </r>
       <r>   -13.0307     1.0769     4.5235 </r>
       <r>   -13.0198     0.0328     4.5238 </r>
       <r>   -13.0090     0.0001     4.5238 </r>
       <r>   -12.9982     0.0000     4.5238 </r>
       <r>   -12.9874     0.0000     4.5238 </r>
       <r>   -12.9766     0.0000     4.5238 </r>
       <r>   -12.9658     0.0000     4.5238 </r>
       <r>   -12.9550     0.0000     4.5238 </r>
       <r>   -12.9442     0.0009     4.5238 </r>
       <r>   -12.9334     0.1669     4.5256 </r>
       <r>   -12.9225     3.4864     4.5633 </r>
       <r>   -12.9117     9.7750     4.6690 </r>
       <r>   -12.9009     3.9756     4.7120 </r>
       <r>   -12.8901     0.6496     4.7190 </r>
       <r>   -12.8793     3.5523     4.7574 </r>
       <r>   -12.8685     4.1224     4.8020 </r>
       <r>   -12.8577     0.6832     4.8094 </r>
       <r>   -12.8469     0.0184     4.8096 </r>
       <r>   -12.8360     0.4130     4.8140 </r>
       <r>   -12.8252     5.3047     4.8714 </r>
       <r>   -12.8144     9.4077     4.9731 </r>
       <r>   -12.8036     2.5002     5.0001 </r>
       <r>   -12.7928     1.9113     5.0208 </r>
       <r>   -12.7820     4.8937     5.0737 </r>
       <r>   -12.7712     2.0764     5.0961 </r>
       <r>   -12.7604     3.7399     5.1366 </r>
       <r>   -12.7496     9.7848     5.2424 </r>
       <r>   -12.7387     3.8081     5.2835 </r>
       <r>   -12.7279     0.2248     5.2860 </r>
       <r>   -12.7171     0.9235     5.2960 </r>
       <r>   -12.7063     4.4593     5.3442 </r>
       <r>   -12.6955     3.0985     5.3777 </r>
       <r>   -12.6847     0.3105     5.3810 </r>
       <r>   -12.6739     0.5578     5.3871 </r>
       <r>   -12.6631     4.1249     5.4316 </r>
       <r>   -12.6523     6.7840     5.5050 </r>
       <r>   -12.6414     5.1046     5.5602 </r>
       <r>   -12.6306     1.6035     5.5775 </r>
       <r>   -12.6198     3.9555     5.6203 </r>
       <r>   -12.6090     3.7725     5.6611 </r>
       <r>   -12.5982     0.9445     5.6713 </r>
       <r>   -12.5874     6.9627     5.7466 </r>
       <r>   -12.5766    18.9765     5.9517 </r>
       <r>   -12.5658    15.9316     6.1240 </r>
       <r>   -12.5550    12.1845     6.2557 </r>
       <r>   -12.5441     2.7050     6.2849 </r>
       <r>   -12.5333     0.8868     6.2945 </r>
       <r>   -12.5225     6.9232     6.3694 </r>
       <r>   -12.5117     8.4949     6.4612 </r>
       <r>   -12.5009     4.1727     6.5063 </r>
       <r>   -12.4901     9.6084     6.6102 </r>
       <r>   -12.4793     4.8777     6.6629 </r>
       <r>   -12.4685     0.3410     6.6666 </r>
       <r>   -12.4576     0.0031     6.6667 </r>
       <r>   -12.4468     0.0670     6.6674 </r>
       <r>   -12.4360     2.7258     6.6969 </r>
       <r>   -12.4252    17.0974     6.8817 </r>
       <r>   -12.4144    23.1298     7.1318 </r>
       <r>   -12.4036     9.0118     7.2292 </r>
       <r>   -12.3928     0.8112     7.2380 </r>
       <r>   -12.3820     0.0108     7.2381 </r>
       <r>   -12.3712     0.0000     7.2381 </r>
       <r>   -12.3603     0.0000     7.2381 </r>
       <r>   -12.3495     0.0002     7.2381 </r>
       <r>   -12.3387     0.0599     7.2387 </r>
       <r>   -12.3279     1.9636     7.2600 </r>
       <r>   -12.3171     8.8720     7.3559 </r>
       <r>   -12.3063     6.0952     7.4218 </r>
       <r>   -12.2955     0.6189     7.4285 </r>
       <r>   -12.2847     0.0082     7.4286 </r>
       <r>   -12.2739     0.0002     7.4286 </r>
       <r>   -12.2630     0.0589     7.4292 </r>
       <r>   -12.2522     2.0310     7.4512 </r>
       <r>   -12.2414     9.1106     7.5497 </r>
       <r>   -12.2306     5.8831     7.6133 </r>
       <r>   -12.2198     0.5284     7.6190 </r>
       <r>   -12.2090     0.0103     7.6191 </r>
       <r>   -12.1982     0.3020     7.6224 </r>
       <r>   -12.1874     3.7195     7.6626 </r>
       <r>   -12.1765    10.8905     7.7803 </r>
       <r>   -12.1657     6.5236     7.8508 </r>
       <r>   -12.1549     2.0428     7.8729 </r>
       <r>   -12.1441     8.3695     7.9634 </r>
       <r>   -12.1333     6.9605     8.0387 </r>
       <r>   -12.1225     0.8827     8.0482 </r>
       <r>   -12.1117     1.5714     8.0652 </r>
       <r>   -12.1009     4.9625     8.1189 </r>
       <r>   -12.0901     4.9539     8.1724 </r>
       <r>   -12.0792     9.7307     8.2776 </r>
       <r>   -12.0684     4.8189     8.3297 </r>
       <r>   -12.0576     0.3317     8.3333 </r>
       <r>   -12.0468     0.0028     8.3333 </r>
       <r>   -12.0360     0.0000     8.3333 </r>
       <r>   -12.0252     0.0000     8.3333 </r>
       <r>   -12.0144     0.0094     8.3334 </r>
       <r>   -12.0036     0.7064     8.3411 </r>
       <r>   -11.9928     6.5972     8.4124 </r>
       <r>   -11.9819     8.6429     8.5058 </r>
       <r>   -11.9711     1.6229     8.5234 </r>
       <r>   -11.9603     0.0677     8.5241 </r>
       <r>   -11.9495     1.2809     8.5380 </r>
       <r>   -11.9387     9.9150     8.6452 </r>
       <r>   -11.9279    15.1964     8.8095 </r>
       <r>   -11.9171     4.2349     8.8552 </r>
       <r>   -11.9063     0.1750     8.8571 </r>
       <r>   -11.8955     0.0035     8.8572 </r>
       <r>   -11.8846     0.3224     8.8607 </r>
       <r>   -11.8738     4.7570     8.9121 </r>
       <r>   -11.8630     9.6157     9.0160 </r>
       <r>   -11.8522     2.8109     9.0464 </r>
       <r>   -11.8414     0.1090     9.0476 </r>
       <r>   -11.8306     0.0385     9.0480 </r>
       <r>   -11.8198     1.5951     9.0653 </r>
       <r>   -11.8090     8.6044     9.1583 </r>
       <r>   -11.7981     6.6494     9.2302 </r>
       <r>   -11.7873     0.7212     9.2380 </r>
       <r>   -11.7765     0.0097     9.2381 </r>
       <r>   -11.7657     0.0002     9.2381 </r>
       <r>   -11.7549     0.0590     9.2387 </r>
       <r>   -11.7441     2.3421     9.2641 </r>
       <r>   -11.7333    14.1285     9.4168 </r>
       <r>   -11.7225    15.4881     9.5843 </r>
       <r>   -11.7117     3.1225     9.6180 </r>
       <r>   -11.7008     0.3425     9.6217 </r>
       <r>   -11.6900     3.1595     9.6559 </r>
       <r>   -11.6792     9.3646     9.7571 </r>
       <r>   -11.6684    10.6981     9.8728 </r>
       <r>   -11.6576     2.8482     9.9036 </r>
       <r>   -11.6468     0.1093     9.9048 </r>
       <r>   -11.6360     0.0005     9.9048 </r>
       <r>   -11.6252     0.0000     9.9048 </r>
       <r>   -11.6144     0.0001     9.9048 </r>
       <r>   -11.6035     0.0244     9.9050 </r>
       <r>   -11.5927     0.9161     9.9149 </r>
       <r>   -11.5819     4.5242     9.9638 </r>
       <r>   -11.5711     5.3718    10.0219 </r>
       <r>   -11.5603     9.6089    10.1258 </r>
       <r>   -11.5495     5.5237    10.1855 </r>
       <r>   -11.5387     0.4533    10.1904 </r>
       <r>   -11.5279     0.0045    10.1905 </r>
       <r>   -11.5171     0.0000    10.1905 </r>
       <r>   -11.5062     0.0000    10.1905 </r>
       <r>   -11.4954     0.0000    10.1905 </r>
       <r>   -11.4846     0.0000    10.1905 </r>
       <r>   -11.4738     0.0000    10.1905 </r>
       <r>   -11.4630     0.0000    10.1905 </r>
       <r>   -11.4522     0.0000    10.1905 </r>
       <r>   -11.4414     0.0089    10.1906 </r>
       <r>   -11.4306     0.6851    10.1980 </r>
       <r>   -11.4197     6.8784    10.2723 </r>
       <r>   -11.4089    14.9478    10.4340 </r>
       <r>   -11.3981    16.7000    10.6145 </r>
       <r>   -11.3873    10.5066    10.7281 </r>
       <r>   -11.3765     9.5634    10.8315 </r>
       <r>   -11.3657     2.2984    10.8563 </r>
       <r>   -11.3549     0.0741    10.8571 </r>
       <r>   -11.3441     0.0003    10.8571 </r>
       <r>   -11.3333     0.0000    10.8571 </r>
       <r>   -11.3224     0.0039    10.8572 </r>
       <r>   -11.3116     0.4130    10.8617 </r>
       <r>   -11.3008     5.3052    10.9190 </r>
       <r>   -11.2900     9.4069    11.0207 </r>
       <r>   -11.2792     2.4078    11.0467 </r>
       <r>   -11.2684     0.1346    11.0482 </r>
       <r>   -11.2576     2.0604    11.0705 </r>
       <r>   -11.2468    11.3126    11.1928 </r>
       <r>   -11.2360    10.9140    11.3108 </r>
       <r>   -11.2251     2.1196    11.3337 </r>
       <r>   -11.2143     3.2319    11.3686 </r>
       <r>   -11.2035    13.7081    11.5168 </r>
       <r>   -11.1927     8.6731    11.6106 </r>
       <r>   -11.1819     0.9644    11.6210 </r>
       <r>   -11.1711     4.3969    11.6686 </r>
       <r>   -11.1603    14.2019    11.8221 </r>
       <r>   -11.1495     7.1091    11.8990 </r>
       <r>   -11.1386     0.5303    11.9047 </r>
       <r>   -11.1278     0.0053    11.9048 </r>
       <r>   -11.1170     0.0000    11.9048 </r>
       <r>   -11.1062     0.0000    11.9048 </r>
       <r>   -11.0954     0.0000    11.9048 </r>
       <r>   -11.0846     0.0000    11.9048 </r>
       <r>   -11.0738     0.0000    11.9048 </r>
       <r>   -11.0630     0.0000    11.9048 </r>
       <r>   -11.0522     0.0000    11.9048 </r>
       <r>   -11.0413     0.0000    11.9048 </r>
       <r>   -11.0305     0.0000    11.9048 </r>
       <r>   -11.0197     0.0000    11.9048 </r>
       <r>   -11.0089     0.0000    11.9048 </r>
       <r>   -10.9981     0.0000    11.9048 </r>
       <r>   -10.9873     0.0000    11.9048 </r>
       <r>   -10.9765     0.0039    11.9048 </r>
       <r>   -10.9657     0.3161    11.9082 </r>
       <r>   -10.9549     3.1605    11.9424 </r>
       <r>   -10.9440     4.4185    11.9902 </r>
       <r>   -10.9332     0.8870    11.9998 </r>
       <r>   -10.9224     0.0230    12.0000 </r>
       <r>   -10.9116     0.0001    12.0000 </r>
       <r>   -10.9008     0.0000    12.0000 </r>
       <r>   -10.8900     0.0000    12.0000 </r>
       <r>   -10.8792     0.0000    12.0000 </r>
       <r>   -10.8684     0.0000    12.0000 </r>
       <r>   -10.8576     0.0000    12.0000 </r>
       <r>   -10.8467     0.0000    12.0000 </r>
       <r>   -10.8359     0.0000    12.0000 </r>
       <r>   -10.8251     0.0000    12.0000 </r>
       <r>   -10.8143     0.0000    12.0000 </r>
       <r>   -10.8035     0.0000    12.0000 </r>
       <r>   -10.7927     0.0000    12.0000 </r>
       <r>   -10.7819     0.0000    12.0000 </r>
       <r>   -10.7711     0.0000    12.0000 </r>
       <r>   -10.7602     0.0000    12.0000 </r>
       <r>   -10.7494     0.0000    12.0000 </r>
       <r>   -10.7386     0.0000    12.0000 </r>
       <r>   -10.7278     0.0000    12.0000 </r>
       <r>   -10.7170     0.0000    12.0000 </r>
       <r>   -10.7062     0.0000    12.0000 </r>
       <r>   -10.6954     0.0000    12.0000 </r>
       <r>   -10.6846     0.0000    12.0000 </r>
       <r>   -10.6738     0.0000    12.0000 </r>
       <r>   -10.6629     0.0000    12.0000 </r>
       <r>   -10.6521     0.0000    12.0000 </r>
       <r>   -10.6413     0.0000    12.0000 </r>
       <r>   -10.6305     0.0000    12.0000 </r>
       <r>   -10.6197     0.0000    12.0000 </r>
       <r>   -10.6089     0.0000    12.0000 </r>
       <r>   -10.5981     0.0000    12.0000 </r>
       <r>   -10.5873     0.0000    12.0000 </r>
       <r>   -10.5765     0.0000    12.0000 </r>
       <r>   -10.5656     0.0000    12.0000 </r>
       <r>   -10.5548     0.0000    12.0000 </r>
       <r>   -10.5440     0.0000    12.0000 </r>
       <r>   -10.5332     0.0000    12.0000 </r>
       <r>   -10.5224     0.0000    12.0000 </r>
       <r>   -10.5116     0.0000    12.0000 </r>
       <r>   -10.5008     0.0000    12.0000 </r>
       <r>   -10.4900     0.0000    12.0000 </r>
       <r>   -10.4792     0.0000    12.0000 </r>
       <r>   -10.4683     0.0000    12.0000 </r>
       <r>   -10.4575     0.0000    12.0000 </r>
       <r>   -10.4467     0.0000    12.0000 </r>
       <r>   -10.4359     0.0000    12.0000 </r>
       <r>   -10.4251     0.0000    12.0000 </r>
       <r>   -10.4143     0.0000    12.0000 </r>
       <r>   -10.4035     0.0041    12.0000 </r>
       <r>   -10.3927     0.3241    12.0035 </r>
       <r>   -10.3818     3.1915    12.0381 </r>
       <r>   -10.3710     4.3975    12.0856 </r>
       <r>   -10.3602     0.8696    12.0950 </r>
       <r>   -10.3494     0.0222    12.0952 </r>
       <r>   -10.3386     0.0001    12.0952 </r>
       <r>   -10.3278     0.0007    12.0952 </r>
       <r>   -10.3170     0.1320    12.0967 </r>
       <r>   -10.3062     3.1008    12.1302 </r>
       <r>   -10.2954     9.7098    12.2352 </r>
       <r>   -10.2845     4.4009    12.2828 </r>
       <r>   -10.2737     0.2718    12.2857 </r>
       <r>   -10.2629     0.0020    12.2857 </r>
       <r>   -10.2521     0.0000    12.2857 </r>
       <r>   -10.2413     0.0000    12.2857 </r>
[...]
        <r>  0.0237  0.0018  0.0193  0.0211  0.0000  0.0000  0.0000  0.0000  0.0000 </r>
        <r>  0.0019  0.0075  0.0253  0.0096  0.0000  0.0000  0.0000  0.0000  0.0000 </r>
        <r>  0.0228  0.0057  0.0081  0.0142  0.0000  0.0000  0.0000  0.0000  0.0000 </r>
        <r>  0.0011  0.0114  0.0142  0.0028  0.0000  0.0000  0.0000  0.0000  0.0000 </r>
        <r>  0.0030  0.0131  0.0054  0.0004  0.0000  0.0000  0.0000  0.0000  0.0000 </r>
        <r>  0.0156  0.0054  0.0024  0.0067  0.0000  0.0000  0.0000  0.0000  0.0000 </r>
        <r>  0.0041  0.0061  0.0228  0.0132  0.0000  0.0000  0.0000  0.0000  0.0000 </r>
        <r>  0.0180  0.0009  0.0224  0.0169  0.0000  0.0000  0.0000  0.0000  0.0000 </r>
       </set>
       <set comment="band 25">
        <r>  0.0095  0.0180  0.0097  0.0020  0.0000  0.0000  0.0000  0.0000  0.0000 </r>
        <r>  0.0024  0.0050  0.0027  0.0072  0.0000  0.0000  0.0000  0.0000  0.0000 </r>
        <r>  0.0000  0.0175  0.0019  0.0006  0.0000  0.0000  0.0000  0.0000  0.0000 </r>
        <r>  0.0001  0.0036  0.0004  0.0027  0.0000  0.0000  0.0000  0.0000  0.0000 </r>
        <r>  0.0033  0.0099  0.0036  0.0110  0.0000  0.0000  0.0000  0.0000  0.0000 </r>
        <r>  0.0069  0.0422  0.0120  0.0034  0.0000  0.0000  0.0000  0.0000  0.0000 </r>
        <r>  0.0010  0.0235  0.0042  0.0112  0.0000  0.0000  0.0000  0.0000  0.0000 </r>
        <r>  0.0046  0.0558  0.0127  0.0036  0.0000  0.0000  0.0000  0.0000  0.0000 </r>
        <r>  0.0000  0.0324  0.0036  0.0018  0.0000  0.0000  0.0000  0.0000  0.0000 </r>
        <r>  0.0000  0.0185  0.0021  0.0039  0.0000  0.0000  0.0000  0.0000  0.0000 </r>
        <r>  0.0114  0.0204  0.0106  0.0029  0.0000  0.0000  0.0000  0.0000  0.0000 </r>
        <r>  0.0044  0.0073  0.0037  0.0081  0.0000  0.0000  0.0000  0.0000  0.0000 </r>
       </set>
       <set comment="band 26">
        <r>  0.0044  0.0073  0.0037  0.0081  0.0000  0.0000  0.0000  0.0000  0.0000 </r>
        <r>  0.0114  0.0204  0.0106  0.0029  0.0000  0.0000  0.0000  0.0000  0.0000 </r>
        <r>  0.0000  0.0185  0.0021  0.0039  0.0000  0.0000  0.0000  0.0000  0.0000 </r>
        <r>  0.0000  0.0324  0.0036  0.0018  0.0000  0.0000  0.0000  0.0000  0.0000 </r>
        <r>  0.0046  0.0558  0.0127  0.0036  0.0000  0.0000  0.0000  0.0000  0.0000 </r>
        <r>  0.0010  0.0235  0.0042  0.0112  0.0000  0.0000  0.0000  0.0000  0.0000 </r>
        <r>  0.0069  0.0422  0.0120  0.0034  0.0000  0.0000  0.0000  0.0000  0.0000 </r>
        <r>  0.0033  0.0099  0.0036  0.0110  0.0000  0.0000  0.0000  0.0000  0.0000 </r>
        <r>  0.0001  0.0036  0.0004  0.0027  0.0000  0.0000  0.0000  0.0000  0.0000 </r>
        <r>  0.0000  0.0175  0.0019  0.0006  0.0000  0.0000  0.0000  0.0000  0.0000 </r>
        <r>  0.0024  0.0050  0.0027  0.0072  0.0000  0.0000  0.0000  0.0000  0.0000 </r>
        <r>  0.0095  0.0180  0.0097  0.0020  0.0000  0.0000  0.0000  0.0000  0.0000 </r>
       </set>
       <set comment="band 27">
        <r>  0.0033  0.0306  0.0048  0.0101  0.0000  0.0000  0.0000  0.0000  0.0000 </r>
        <r>  0.0097  0.0673  0.0124  0.0038  0.0000  0.0000  0.0000  0.0000  0.0000 </r>
        <r>  0.0030  0.0156  0.0032  0.0091  0.0000  0.0000  0.0000  0.0000  0.0000 </r>
        <r>  0.0079  0.0547  0.0100  0.0031  0.0000  0.0000  0.0000  0.0000  0.0000 </r>
        <r>  0.0075  0.0008  0.0014  0.0001  0.0000  0.0000  0.0000  0.0000  0.0000 </r>
        <r>  0.0018  0.0003  0.0003  0.0003  0.0000  0.0000  0.0000  0.0000  0.0000 </r>
        <r>  0.0080  0.0005  0.0016  0.0003  0.0000  0.0000  0.0000  0.0000  0.0000 </r>
        <r>  0.0023  0.0001  0.0005  0.0006  0.0000  0.0000  0.0000  0.0000  0.0000 </r>
        <r>  0.0013  0.0128  0.0020  0.0078  0.0000  0.0000  0.0000  0.0000  0.0000 </r>
        <r>  0.0063  0.0518  0.0089  0.0017  0.0000  0.0000  0.0000  0.0000  0.0000 </r>
        <r>  0.0018  0.0107  0.0021  0.0081  0.0000  0.0000  0.0000  0.0000  0.0000 </r>
        <r>  0.0082  0.0473  0.0096  0.0017  0.0000  0.0000  0.0000  0.0000  0.0000 </r>
       </set>
       <set comment="band 28">
        <r>  0.0082  0.0473  0.0096  0.0017  0.0000  0.0000  0.0000  0.0000  0.0000 </r>
        <r>  0.0018  0.0107  0.0021  0.0081  0.0000  0.0000  0.0000  0.0000  0.0000 </r>
        <r>  0.0063  0.0518  0.0089  0.0017  0.0000  0.0000  0.0000  0.0000  0.0000 </r>
        <r>  0.0013  0.0128  0.0020  0.0078  0.0000  0.0000  0.0000  0.0000  0.0000 </r>
        <r>  0.0023  0.0001  0.0005  0.0006  0.0000  0.0000  0.0000  0.0000  0.0000 </r>
        <r>  0.0080  0.0005  0.0016  0.0003  0.0000  0.0000  0.0000  0.0000  0.0000 </r>
        <r>  0.0018  0.0003  0.0003  0.0003  0.0000  0.0000  0.0000  0.0000  0.0000 </r>
        <r>  0.0075  0.0008  0.0014  0.0001  0.0000  0.0000  0.0000  0.0000  0.0000 </r>
        <r>  0.0079  0.0547  0.0100  0.0031  0.0000  0.0000  0.0000  0.0000  0.0000 </r>
        <r>  0.0030  0.0156  0.0032  0.0091  0.0000  0.0000  0.0000  0.0000  0.0000 </r>
        <r>  0.0097  0.0673  0.0124  0.0038  0.0000  0.0000  0.0000  0.0000  0.0000 </r>
        <r>  0.0033  0.0306  0.0048  0.0101  0.0000  0.0000  0.0000  0.0000  0.0000 </r>
       </set>
       <set comment="band 29">
        <r>  0.0014  0.0483  0.0028  0.0002  0.0000  0.0000  0.0000  0.0000  0.0000 </r>
        <r>  0.0002  0.0048  0.0002  0.0028  0.0000  0.0000  0.0000  0.0000  0.0000 </r>
        <r>  0.0161  0.0294  0.0077  0.0004  0.0000  0.0000  0.0000  0.0000  0.0000 </r>
        <r>  0.0014  0.0026  0.0006  0.0050  0.0000  0.0000  0.0000  0.0000  0.0000 </r>
        <r>  0.0011  0.0055  0.0009  0.0077  0.0000  0.0000  0.0000  0.0000  0.0000 </r>
        <r>  0.0126  0.0683  0.0094  0.0008  0.0000  0.0000  0.0000  0.0000  0.0000 </r>
        <r>  0.0018  0.0116  0.0013  0.0079  0.0000  0.0000  0.0000  0.0000  0.0000 </r>
        <r>  0.0133  0.0743  0.0099  0.0010  0.0000  0.0000  0.0000  0.0000  0.0000 </r>
        <r>  0.0172  0.0381  0.0085  0.0012  0.0000  0.0000  0.0000  0.0000  0.0000 </r>
        <r>  0.0024  0.0113  0.0014  0.0058  0.0000  0.0000  0.0000  0.0000  0.0000 </r>
        <r>  0.0020  0.0495  0.0032  0.0008  0.0000  0.0000  0.0000  0.0000  0.0000 </r>
        <r>  0.0008  0.0060  0.0007  0.0033  0.0000  0.0000  0.0000  0.0000  0.0000 </r>
       </set>
       <set comment="band 30">
        <r>  0.0008  0.0060  0.0007  0.0033  0.0000  0.0000  0.0000  0.0000  0.0000 </r>
        <r>  0.0020  0.0495  0.0032  0.0008  0.0000  0.0000  0.0000  0.0000  0.0000 </r>
        <r>  0.0024  0.0113  0.0014  0.0058  0.0000  0.0000  0.0000  0.0000  0.0000 </r>
        <r>  0.0172  0.0381  0.0085  0.0012  0.0000  0.0000  0.0000  0.0000  0.0000 </r>
        <r>  0.0133  0.0743  0.0099  0.0010  0.0000  0.0000  0.0000  0.0000  0.0000 </r>
        <r>  0.0018  0.0116  0.0013  0.0079  0.0000  0.0000  0.0000  0.0000  0.0000 </r>
        <r>  0.0126  0.0683  0.0094  0.0008  0.0000  0.0000  0.0000  0.0000  0.0000 </r>
        <r>  0.0011  0.0055  0.0009  0.0077  0.0000  0.0000  0.0000  0.0000  0.0000 </r>
        <r>  0.0014  0.0026  0.0006  0.0050  0.0000  0.0000  0.0000  0.0000  0.0000 </r>
        <r>  0.0161  0.0294  0.0077  0.0004  0.0000  0.0000  0.0000  0.0000  0.0000 </r>
        <r>  0.0002  0.0048  0.0002  0.0028  0.0000  0.0000  0.0000  0.0000  0.0000 </r>
        <r>  0.0014  0.0483  0.0028  0.0002  0.0000  0.0000  0.0000  0.0000  0.0000 </r>
       </set>
       <set comment="band 31">
        <r>  0.0013  0.0023  0.0008  0.0015  0.0000  0.0000  0.0000  0.0000  0.0000 </r>
        <r>  0.0048  0.0326  0.0025  0.0005  0.0000  0.0000  0.0000  0.0000  0.0000 </r>
        <r>  0.0011  0.0052  0.0001  0.0002  0.0000  0.0000  0.0000  0.0000  0.0000 </r>
        <r>  0.0110  0.0118  0.0004  0.0002  0.0000  0.0000  0.0000  0.0000  0.0000 </r>
        <r>  0.0129  0.0458  0.0020  0.0003  0.0000  0.0000  0.0000  0.0000  0.0000 </r>
        <r>  0.0010  0.0105  0.0001  0.0011  0.0000  0.0000  0.0000  0.0000  0.0000 </r>
        <r>  0.0140  0.0378  0.0024  0.0009  0.0000  0.0000  0.0000  0.0000  0.0000 </r>
        <r>  0.0021  0.0025  0.0005  0.0018  0.0000  0.0000  0.0000  0.0000  0.0000 </r>
        <r>  0.0013  0.0012  0.0000  0.0004  0.0000  0.0000  0.0000  0.0000  0.0000 </r>
        <r>  0.0112  0.0079  0.0004  0.0005  0.0000  0.0000  0.0000  0.0000  0.0000 </r>
        <r>  0.0003  0.0062  0.0002  0.0011  0.0000  0.0000  0.0000  0.0000  0.0000 </r>
        <r>  0.0038  0.0364  0.0019  0.0001  0.0000  0.0000  0.0000  0.0000  0.0000 </r>
       </set>
       <set comment="band 32">
        <r>  0.0038  0.0364  0.0019  0.0001  0.0000  0.0000  0.0000  0.0000  0.0000 </r>
        <r>  0.0003  0.0062  0.0002  0.0011  0.0000  0.0000  0.0000  0.0000  0.0000 </r>
        <r>  0.0112  0.0079  0.0004  0.0005  0.0000  0.0000  0.0000  0.0000  0.0000 </r>
        <r>  0.0013  0.0012  0.0000  0.0004  0.0000  0.0000  0.0000  0.0000  0.0000 </r>
        <r>  0.0021  0.0025  0.0005  0.0018  0.0000  0.0000  0.0000  0.0000  0.0000 </r>
        <r>  0.0140  0.0378  0.0024  0.0009  0.0000  0.0000  0.0000  0.0000  0.0000 </r>
        <r>  0.0010  0.0105  0.0001  0.0011  0.0000  0.0000  0.0000  0.0000  0.0000 </r>
        <r>  0.0129  0.0458  0.0020  0.0003  0.0000  0.0000  0.0000  0.0000  0.0000 </r>
        <r>  0.0110  0.0118  0.0004  0.0002  0.0000  0.0000  0.0000  0.0000  0.0000 </r>
        <r>  0.0011  0.0052  0.0001  0.0002  0.0000  0.0000  0.0000  0.0000  0.0000 </r>
        <r>  0.0048  0.0326  0.0025  0.0005  0.0000  0.0000  0.0000  0.0000  0.0000 </r>
        <r>  0.0013  0.0023  0.0008  0.0014  0.0000  0.0000  0.0000  0.0000  0.0000 </r>
       </set>
       <set comment="band 33">
        <r>  0.0041  0.0204  0.0012  0.0023  0.0000  0.0000  0.0000  0.0000  0.0000 </r>
        <r>  0.0071  0.0312  0.0021  0.0014  0.0000  0.0000  0.0000  0.0000  0.0000 </r>
        <r>  0.0038  0.0181  0.0005  0.0019  0.0000  0.0000  0.0000  0.0000  0.0000 </r>
        <r>  0.0062  0.0313  0.0008  0.0014  0.0000  0.0000  0.0000  0.0000  0.0000 </r>
        <r>  0.0010  0.0045  0.0015  0.0003  0.0000  0.0000  0.0000  0.0000  0.0000 </r>
        <r>  0.0006  0.0026  0.0013  0.0003  0.0000  0.0000  0.0000  0.0000  0.0000 </r>
        <r>  0.0010  0.0045  0.0011  0.0004  0.0000  0.0000  0.0000  0.0000  0.0000 </r>
        <r>  0.0006  0.0026  0.0009  0.0004  0.0000  0.0000  0.0000  0.0000  0.0000 </r>
        <r>  0.0032  0.0212  0.0004  0.0015  0.0000  0.0000  0.0000  0.0000  0.0000 </r>
        <r>  0.0056  0.0344  0.0007  0.0010  0.0000  0.0000  0.0000  0.0000  0.0000 </r>
        <r>  0.0044  0.0162  0.0014  0.0026  0.0000  0.0000  0.0000  0.0000  0.0000 </r>
        <r>  0.0075  0.0270  0.0023  0.0016  0.0000  0.0000  0.0000  0.0000  0.0000 </r>
       </set>
       <set comment="band 34">
        <r>  0.0075  0.0270  0.0023  0.0016  0.0000  0.0000  0.0000  0.0000  0.0000 </r>
        <r>  0.0044  0.0162  0.0014  0.0026  0.0000  0.0000  0.0000  0.0000  0.0000 </r>
        <r>  0.0056  0.0344  0.0007  0.0010  0.0000  0.0000  0.0000  0.0000  0.0000 </r>
        <r>  0.0032  0.0212  0.0004  0.0015  0.0000  0.0000  0.0000  0.0000  0.0000 </r>
        <r>  0.0006  0.0026  0.0009  0.0004  0.0000  0.0000  0.0000  0.0000  0.0000 </r>
        <r>  0.0010  0.0045  0.0011  0.0004  0.0000  0.0000  0.0000  0.0000  0.0000 </r>
        <r>  0.0006  0.0026  0.0013  0.0003  0.0000  0.0000  0.0000  0.0000  0.0000 </r>
        <r>  0.0010  0.0045  0.0015  0.0003  0.0000  0.0000  0.0000  0.0000  0.0000 </r>
        <r>  0.0062  0.0313  0.0008  0.0014  0.0000  0.0000  0.0000  0.0000  0.0000 </r>
        <r>  0.0038  0.0181  0.0005  0.0019  0.0000  0.0000  0.0000  0.0000  0.0000 </r>
        <r>  0.0071  0.0312  0.0021  0.0014  0.0000  0.0000  0.0000  0.0000  0.0000 </r>
        <r>  0.0041  0.0204  0.0012  0.0023  0.0000  0.0000  0.0000  0.0000  0.0000 </r>
       </set>
       <set comment="band 35">
        <r>  0.0027  0.0050  0.0012  0.0039  0.0000  0.0000  0.0000  0.0000  0.0000 </r>
        <r>  0.0064  0.0146  0.0006  0.0029  0.0000  0.0000  0.0000  0.0000  0.0000 </r>
        <r>  0.0009  0.0157  0.0015  0.0041  0.0000  0.0000  0.0000  0.0000  0.0000 </r>
        <r>  0.0027  0.0361  0.0024  0.0017  0.0000  0.0000  0.0000  0.0000  0.0000 </r>
        <r>  0.0042  0.0361  0.0008  0.0016  0.0000  0.0000  0.0000  0.0000  0.0000 </r>
        <r>  0.0014  0.0164  0.0003  0.0046  0.0000  0.0000  0.0000  0.0000  0.0000 </r>
        <r>  0.0048  0.0302  0.0010  0.0026  0.0000  0.0000  0.0000  0.0000  0.0000 </r>
        <r>  0.0020  0.0105  0.0005  0.0056  0.0000  0.0000  0.0000  0.0000  0.0000 </r>
        <r>  0.0010  0.0106  0.0029  0.0036  0.0000  0.0000  0.0000  0.0000  0.0000 </r>
        <r>  0.0028  0.0311  0.0038  0.0012  0.0000  0.0000  0.0000  0.0000  0.0000 </r>
        <r>  0.0019  0.0078  0.0010  0.0025  0.0000  0.0000  0.0000  0.0000  0.0000 </r>
        <r>  0.0056  0.0174  0.0003  0.0015  0.0000  0.0000  0.0000  0.0000  0.0000 </r>
       </set>
       <set comment="band 36">
        <r>  0.0056  0.0174  0.0003  0.0015  0.0000  0.0000  0.0000  0.0000  0.0000 </r>
        <r>  0.0019  0.0078  0.0010  0.0025  0.0000  0.0000  0.0000  0.0000  0.0000 </r>
        <r>  0.0028  0.0311  0.0038  0.0012  0.0000  0.0000  0.0000  0.0000  0.0000 </r>
        <r>  0.0010  0.0106  0.0029  0.0036  0.0000  0.0000  0.0000  0.0000  0.0000 </r>
        <r>  0.0020  0.0105  0.0005  0.0056  0.0000  0.0000  0.0000  0.0000  0.0000 </r>
        <r>  0.0048  0.0302  0.0010  0.0026  0.0000  0.0000  0.0000  0.0000  0.0000 </r>
        <r>  0.0014  0.0164  0.0003  0.0046  0.0000  0.0000  0.0000  0.0000  0.0000 </r>
        <r>  0.0042  0.0361  0.0008  0.0016  0.0000  0.0000  0.0000  0.0000  0.0000 </r>
        <r>  0.0027  0.0361  0.0024  0.0017  0.0000  0.0000  0.0000  0.0000  0.0000 </r>
        <r>  0.0009  0.0157  0.0015  0.0041  0.0000  0.0000  0.0000  0.0000  0.0000 </r>
        <r>  0.0064  0.0146  0.0006  0.0029  0.0000  0.0000  0.0000  0.0000  0.0000 </r>
        <r>  0.0027  0.0050  0.0012  0.0039  0.0000  0.0000  0.0000  0.0000  0.0000 </r>
       </set>
       <set comment="band 37">
        <r>  0.0010  0.0005  0.0152  0.0001  0.0000  0.0000  0.0000  0.0000  0.0000 </r>
        <r>  0.0000  0.0004  0.0002  0.0060  0.0000  0.0000  0.0000  0.0000  0.0000 </r>
        <r>  0.0011  0.0003  0.0297  0.0031  0.0000  0.0000  0.0000  0.0000  0.0000 </r>
        <r>  0.0000  0.0008  0.0169  0.0126  0.0000  0.0000  0.0000  0.0000  0.0000 </r>
        <r>  0.0000  0.0006  0.0271  0.0341  0.0000  0.0000  0.0000  0.0000  0.0000 </r>
        <r>  0.0036  0.0042  0.0728  0.0089  0.0000  0.0000  0.0000  0.0000  0.0000 </r>
        <r>  0.0015  0.0002  0.0007  0.0256  0.0000  0.0000  0.0000  0.0000  0.0000 </r>
        <r>  0.0050  0.0038  0.0463  0.0003  0.0000  0.0000  0.0000  0.0000  0.0000 </r>
        <r>  0.0020  0.0015  0.0146  0.0002  0.0000  0.0000  0.0000  0.0000  0.0000 </r>
        <r>  0.0009  0.0020  0.0017  0.0097  0.0000  0.0000  0.0000  0.0000  0.0000 </r>
        <r>  0.0012  0.0015  0.0202  0.0020  0.0000  0.0000  0.0000  0.0000  0.0000 </r>
        <r>  0.0003  0.0014  0.0052  0.0079  0.0000  0.0000  0.0000  0.0000  0.0000 </r>
       </set>
       <set comment="band 38">
        <r>  0.0003  0.0014  0.0054  0.0079  0.0000  0.0000  0.0000  0.0000  0.0000 </r>
        <r>  0.0012  0.0015  0.0203  0.0021  0.0000  0.0000  0.0000  0.0000  0.0000 </r>
        <r>  0.0009  0.0020  0.0015  0.0096  0.0000  0.0000  0.0000  0.0000  0.0000 </r>
        <r>  0.0020  0.0015  0.0145  0.0002  0.0000  0.0000  0.0000  0.0000  0.0000 </r>
        <r>  0.0050  0.0039  0.0460  0.0004  0.0000  0.0000  0.0000  0.0000  0.0000 </r>
        <r>  0.0015  0.0002  0.0007  0.0255  0.0000  0.0000  0.0000  0.0000  0.0000 </r>
        <r>  0.0036  0.0042  0.0723  0.0088  0.0000  0.0000  0.0000  0.0000  0.0000 </r>
        <r>  0.0000  0.0006  0.0271  0.0340  0.0000  0.0000  0.0000  0.0000  0.0000 </r>
        <r>  0.0000  0.0008  0.0165  0.0128  0.0000  0.0000  0.0000  0.0000  0.0000 </r>
        <r>  0.0012  0.0003  0.0300  0.0030  0.0000  0.0000  0.0000  0.0000  0.0000 </r>
        <r>  0.0000  0.0004  0.0002  0.0061  0.0000  0.0000  0.0000  0.0000  0.0000 </r>
        <r>  0.0010  0.0005  0.0157  0.0001  0.0000  0.0000  0.0000  0.0000  0.0000 </r>
       </set>
       <set comment="band 39">
        <r>  0.0022  0.0017  0.0437  0.0034  0.0000  0.0000  0.0000  0.0000  0.0000 </r>
        <r>  0.0007  0.0003  0.0101  0.0192  0.0000  0.0000  0.0000  0.0000  0.0000 </r>
        <r>  0.0023  0.0013  0.0419  0.0045  0.0000  0.0000  0.0000  0.0000  0.0000 </r>
        <r>  0.0005  0.0008  0.0083  0.0220  0.0000  0.0000  0.0000  0.0000  0.0000 </r>
        <r>  0.0017  0.0050  0.0022  0.0010  0.0000  0.0000  0.0000  0.0000  0.0000 </r>
        <r>  0.0006  0.0009  0.0005  0.0042  0.0000  0.0000  0.0000  0.0000  0.0000 </r>
        <r>  0.0013  0.0051  0.0032  0.0010  0.0000  0.0000  0.0000  0.0000  0.0000 </r>
        <r>  0.0002  0.0008  0.0015  0.0047  0.0000  0.0000  0.0000  0.0000  0.0000 </r>
        <r>  0.0023  0.0027  0.0700  0.0161  0.0000  0.0000  0.0000  0.0000  0.0000 </r>
        <r>  0.0002  0.0022  0.0289  0.0367  0.0000  0.0000  0.0000  0.0000  0.0000 </r>
        <r>  0.0041  0.0026  0.0451  0.0029  0.0000  0.0000  0.0000  0.0000  0.0000 </r>
        <r>  0.0024  0.0010  0.0045  0.0222  0.0000  0.0000  0.0000  0.0000  0.0000 </r>
       </set>
       <set comment="band 40">
        <r>  0.0012  0.0002  0.0063  0.0154  0.0000  0.0000  0.0000  0.0000  0.0000 </r>
        <r>  0.0020  0.0007  0.0321  0.0031  0.0000  0.0000  0.0000  0.0000  0.0000 </r>
        <r>  0.0002  0.0006  0.0214  0.0204  0.0000  0.0000  0.0000  0.0000  0.0000 </r>
        <r>  0.0012  0.0006  0.0488  0.0089  0.0000  0.0000  0.0000  0.0000  0.0000 </r>
        <r>  0.0004  0.0001  0.0392  0.0172  0.0000  0.0000  0.0000  0.0000  0.0000 </r>
        <r>  0.0004  0.0011  0.0348  0.0161  0.0000  0.0000  0.0000  0.0000  0.0000 </r>
        <r>  0.0014  0.0002  0.0232  0.0077  0.0000  0.0000  0.0000  0.0000  0.0000 </r>
        <r>  0.0018  0.0002  0.0191  0.0094  0.0000  0.0000  0.0000  0.0000  0.0000 </r>
        <r>  0.0010  0.0001  0.0209  0.0011  0.0000  0.0000  0.0000  0.0000  0.0000 </r>
        <r>  0.0004  0.0003  0.0045  0.0081  0.0000  0.0000  0.0000  0.0000  0.0000 </r>
        <r>  0.0005  0.0002  0.0301  0.0054  0.0000  0.0000  0.0000  0.0000  0.0000 </r>
        <r>  0.0001  0.0000  0.0148  0.0129  0.0000  0.0000  0.0000  0.0000  0.0000 </r>
       </set>
      </set>
     </set>
    </set>
   </array>
  </projected>
 </calculation>
 <structure name="finalpos" >
  <crystal>
   <varray name="basis" >
    <v>       3.34288600       0.00000000       0.00000000 </v>
    <v>       0.00000000      32.60240900       0.00000000 </v>
    <v>       0.00000000       0.00000000       4.37483100 </v>
   </varray>
   <i name="volume">    476.79592902 </i>
   <varray name="rec_basis" >
    <v>       0.29914272       0.00000000       0.00000000 </v>
    <v>       0.00000000       0.03067258       0.00000000 </v>
    <v>       0.00000000       0.00000000       0.22858026 </v>
   </varray>
  </crystal>
  <varray name="positions" >
   <v>       0.00000000       0.30672600       0.91892400 </v>
   <v>       0.50000000       0.30672600       0.58107600 </v>
   <v>       0.00000000       0.37246700       0.08107600 </v>
   <v>       0.50000000       0.37246700       0.41892400 </v>
   <v>       0.50000000       0.46712900       0.41892400 </v>
   <v>       0.00000000       0.46712900       0.08107600 </v>
   <v>       0.50000000       0.53287100       0.58107600 </v>
   <v>       0.00000000       0.53287100       0.91892400 </v>
   <v>       0.00000000       0.62753300       0.91892400 </v>
   <v>       0.50000000       0.62753300       0.58107600 </v>
   <v>       0.00000000       0.69327400       0.08107600 </v>
   <v>       0.50000000       0.69327400       0.41892400 </v>
  </varray>
 </structure>
</modeling>
