       N       E                     dE             d eps       ncg     rms          rms(c)
DAV:   1     0.434247575579E+03    0.43425E+03   -0.26534E+04   960   0.156E+03
DAV:   2    -0.131952604973E+02   -0.44744E+03   -0.43095E+03  1384   0.232E+02
DAV:   3    -0.628854565258E+02   -0.49690E+02   -0.48926E+02  1152   0.797E+01
DAV:   4    -0.647645309244E+02   -0.18791E+01   -0.18685E+01  1416   0.173E+01
DAV:   5    -0.648154241983E+02   -0.50893E-01   -0.50857E-01  1440   0.272E+00    0.175E+01
DAV:   6    -0.644908746728E+02    0.32455E+00   -0.19924E-01  1296   0.166E+00    0.104E+01
DAV:   7    -0.643414883294E+02    0.14939E+00   -0.35911E-01  1176   0.228E+00    0.438E-01
DAV:   8    -0.643413060982E+02    0.18223E-03   -0.32070E-02  1288   0.729E-01    0.231E-01
DAV:   9    -0.643412640152E+02    0.42083E-04   -0.16700E-03  1440   0.170E-01    0.201E-01
DAV:  10    -0.643410121187E+02    0.25190E-03   -0.36281E-04  1224   0.736E-02    0.147E-01
DAV:  11    -0.643407296705E+02    0.28245E-03   -0.40254E-04  1224   0.762E-02    0.495E-02
DAV:  12    -0.643408547705E+02   -0.12510E-03   -0.89316E-05  1208   0.385E-02    0.198E-02
DAV:  13    -0.643410742982E+02   -0.21953E-03   -0.83689E-05  1168   0.336E-02    0.548E-02
DAV:  14    -0.643411498275E+02   -0.75529E-04   -0.77315E-06   824   0.131E-02    0.430E-02
DAV:  15    -0.643413210856E+02   -0.17126E-03   -0.10527E-05   856   0.169E-02    0.101E-02
DAV:  16    -0.643414737372E+02   -0.15265E-03   -0.25003E-05   976   0.155E-02    0.316E-02
DAV:  17    -0.643414752239E+02   -0.14867E-05   -0.10700E-06   776   0.463E-03
   1 F= -.66515415E+02 E0= -.66515415E+02  d E =-.660016E-07
