  12  12   1   0
  0.3973299E+02  0.3342886E-09  0.3260241E-08  0.4374831E-09  0.5000000E-15
  1.000000000000000E-004
  CAR 
 Generic Input                           
      5.85393418    -15.84080775 2000      0.93893416      1.00000000
    -15.841  0.0000E+00  0.0000E+00
    -15.830  0.0000E+00  0.0000E+00
    -15.819  0.0000E+00  0.0000E+00
    -15.808  0.0000E+00  0.0000E+00
    -15.797  0.0000E+00  0.0000E+00
    -15.787  0.0000E+00  0.0000E+00
    -15.776  0.0000E+00  0.0000E+00
    -15.765  0.0000E+00  0.0000E+00
    -15.754  0.0000E+00  0.0000E+00
    -15.743  0.0000E+00  0.0000E+00
    -15.732  0.0000E+00  0.0000E+00
    -15.721  0.0000E+00  0.0000E+00
    -15.711  0.0000E+00  0.0000E+00
    -15.700  0.0000E+00  0.0000E+00
    -15.689  0.0000E+00  0.0000E+00
    -15.678  0.0000E+00  0.0000E+00
    -15.667  0.0000E+00  0.0000E+00
    -15.656  0.0000E+00  0.0000E+00
    -15.645  0.0000E+00  0.0000E+00
    -15.635  0.0000E+00  0.0000E+00
    -15.624  0.0000E+00  0.0000E+00
    -15.613  0.0000E+00  0.0000E+00
    -15.602  0.0000E+00  0.0000E+00
    -15.591  0.0000E+00  0.0000E+00
    -15.580  0.0000E+00  0.0000E+00
    -15.569  0.0000E+00  0.0000E+00
    -15.559  0.0000E+00  0.0000E+00
    -15.548  0.0000E+00  0.0000E+00
    -15.537  0.0000E+00  0.0000E+00
    -15.526  0.0000E+00  0.0000E+00
    -15.515  0.0000E+00  0.0000E+00
    -15.504  0.0000E+00  0.0000E+00
    -15.494  0.0000E+00  0.0000E+00
    -15.483  0.0000E+00  0.0000E+00
    -15.472  0.0000E+00  0.0000E+00
    -15.461  0.0000E+00  0.0000E+00
    -15.450  0.0000E+00  0.0000E+00
    -15.439  0.0000E+00  0.0000E+00
    -15.428  0.0000E+00  0.0000E+00
    -15.418  0.0000E+00  0.0000E+00
    -15.407  0.0000E+00  0.0000E+00
    -15.396  0.0000E+00  0.0000E+00
    -15.385  0.0000E+00  0.0000E+00
    -15.374  0.0000E+00  0.0000E+00
    -15.363  0.0000E+00  0.0000E+00
    -15.352  0.0000E+00  0.0000E+00
    -15.342  0.0000E+00  0.0000E+00
    -15.331  0.0000E+00  0.0000E+00
    -15.320  0.0000E+00  0.0000E+00
    -15.309  0.0000E+00  0.0000E+00
    -15.298  0.0000E+00  0.0000E+00
    -15.287  0.0000E+00  0.0000E+00
    -15.276  0.0000E+00  0.0000E+00
    -15.266  0.0000E+00  0.0000E+00
    -15.255  0.0000E+00  0.0000E+00
    -15.244  0.0000E+00  0.0000E+00
    -15.233  0.0000E+00  0.0000E+00
    -15.222  0.0000E+00  0.0000E+00
    -15.211  0.0000E+00  0.0000E+00
    -15.200  0.0000E+00  0.0000E+00
    -15.190  0.0000E+00  0.0000E+00
    -15.179  0.0000E+00  0.0000E+00
    -15.168  0.0000E+00  0.0000E+00
    -15.157  0.0000E+00  0.0000E+00
    -15.146  0.0000E+00  0.0000E+00
    -15.135  0.0000E+00  0.0000E+00
    -15.125  0.0000E+00  0.0000E+00
    -15.114  0.0000E+00  0.0000E+00
    -15.103  0.0000E+00  0.0000E+00
    -15.092  0.0000E+00  0.0000E+00
    -15.081  0.0000E+00  0.0000E+00
    -15.070  0.0000E+00  0.0000E+00
    -15.059  0.0000E+00  0.0000E+00
    -15.049  0.0000E+00  0.0000E+00
    -15.038  0.0000E+00  0.0000E+00
    -15.027  0.0000E+00  0.0000E+00
    -15.016  0.0000E+00  0.0000E+00
    -15.005  0.0000E+00  0.0000E+00
    -14.994  0.0000E+00  0.0000E+00
    -14.983  0.0000E+00  0.0000E+00
    -14.973  0.0000E+00  0.0000E+00
    -14.962  0.0000E+00  0.0000E+00
    -14.951  0.0000E+00  0.0000E+00
    -14.940  0.0000E+00  0.0000E+00
    -14.929  0.0000E+00  0.0000E+00
    -14.918  0.0000E+00  0.0000E+00
    -14.907  0.3201E-12  0.3474E-14
    -14.897  0.1163E-07  0.1262E-09
    -14.886  0.4249E-04  0.4612E-06
    -14.875  0.1620E-01  0.1763E-03
    -14.864  0.6940E+00  0.7708E-02
    -14.853  0.3765E+01  0.4857E-01
    -14.842  0.2891E+01  0.7995E-01
    -14.831  0.3075E+00  0.8329E-01
    -14.821  0.3995E-02  0.8333E-01
    -14.810  0.5686E-05  0.8333E-01
    -14.799  0.8344E-09  0.8333E-01
    -14.788  0.1317E-12  0.8333E-01
    -14.777  0.5282E-08  0.8333E-01
    -14.766  0.2335E-04  0.8333E-01
    -14.756  0.1073E-01  0.8345E-01
    -14.745  0.5497E+00  0.8942E-01
    -14.734  0.3527E+01  0.1277E+00
    -14.723  0.3184E+01  0.1622E+00
    -14.712  0.4012E+00  0.1666E+00
    -14.701  0.6246E-02  0.1667E+00
    -14.690  0.1846E-02  0.1667E+00
    -14.680  0.1912E+00  0.1688E+00
    -14.669  0.2389E+01  0.1947E+00
    -14.658  0.4075E+01  0.2389E+00
    -14.647  0.9906E+00  0.2497E+00
    -14.636  0.3108E-01  0.2500E+00
    -14.625  0.1111E-03  0.2500E+00
    -14.614  0.4176E-07  0.2500E+00
    -14.604  0.1586E-11  0.2500E+00
    -14.593  0.0000E+00  0.2500E+00
    -14.582  0.5822E-11  0.2500E+00
    -14.571  0.1354E-06  0.2500E+00
    -14.560  0.3186E-03  0.2500E+00
    -14.549  0.7912E-01  0.2509E+00
    -14.538  0.2250E+01  0.2753E+00
    -14.528  0.8324E+01  0.3656E+00
    -14.517  0.4813E+01  0.4179E+00
    -14.506  0.5295E+01  0.4753E+00
    -14.495  0.8048E+01  0.5627E+00
    -14.484  0.1850E+01  0.5827E+00
    -14.473  0.5469E-01  0.5833E+00
    -14.463  0.1836E-03  0.5833E+00
    -14.452  0.2319E-06  0.5833E+00
    -14.441  0.3726E-03  0.5833E+00
    -14.430  0.8779E-01  0.5843E+00
    -14.419  0.2375E+01  0.6101E+00
    -14.408  0.8461E+01  0.7019E+00
    -14.397  0.6507E+01  0.7725E+00
    -14.387  0.8625E+01  0.8661E+00
    -14.376  0.4348E+01  0.9133E+00
    -14.365  0.3401E+00  0.9170E+00
    -14.354  0.1408E+01  0.9323E+00
    -14.343  0.7927E+01  0.1018E+01
    -14.332  0.1051E+02  0.1132E+01
    -14.321  0.8771E+01  0.1228E+01
    -14.311  0.2006E+01  0.1249E+01
    -14.300  0.6318E-01  0.1250E+01
    -14.289  0.2275E-03  0.1250E+01
    -14.278  0.8623E-07  0.1250E+01
    -14.267  0.3301E-11  0.1250E+01
    -14.256  0.0000E+00  0.1250E+01
    -14.245  0.0000E+00  0.1250E+01
    -14.235  0.2037E-10  0.1250E+01
    -14.224  0.4221E-06  0.1250E+01
    -14.213  0.8861E-03  0.1250E+01
    -14.202  0.1969E+00  0.1252E+01
    -14.191  0.5038E+01  0.1307E+01
    -14.180  0.1687E+02  0.1490E+01
    -14.169  0.8077E+01  0.1578E+01
    -14.159  0.5217E+00  0.1583E+01
    -14.148  0.3990E-02  0.1583E+01
    -14.137  0.3282E-05  0.1583E+01
    -14.126  0.2762E-09  0.1583E+01
    -14.115  0.2564E-07  0.1583E+01
    -14.104  0.1082E-03  0.1583E+01
    -14.094  0.4754E-01  0.1584E+01
    -14.083  0.2330E+01  0.1609E+01
    -14.072  0.1435E+02  0.1765E+01
    -14.061  0.1246E+02  0.1900E+01
    -14.050  0.1506E+01  0.1916E+01
    -14.039  0.2546E-01  0.1917E+01
    -14.028  0.4373E+00  0.1921E+01
    -14.018  0.7447E+01  0.2002E+01
    -14.007  0.1702E+02  0.2187E+01
    -13.996  0.5564E+01  0.2247E+01
    -13.985  0.2395E+00  0.2250E+01
    -13.974  0.1193E-02  0.2250E+01
    -13.963  0.6311E-06  0.2250E+01
    -13.952  0.3386E-10  0.2250E+01
    -13.942  0.0000E+00  0.2250E+01
    -13.931  0.0000E+00  0.2250E+01
    -13.920  0.0000E+00  0.2250E+01
    -13.909  0.0000E+00  0.2250E+01
    -13.898  0.0000E+00  0.2250E+01
    -13.887  0.0000E+00  0.2250E+01
    -13.876  0.0000E+00  0.2250E+01
    -13.866  0.0000E+00  0.2250E+01
    -13.855  0.0000E+00  0.2250E+01
    -13.844  0.0000E+00  0.2250E+01
    -13.833  0.0000E+00  0.2250E+01
    -13.822  0.0000E+00  0.2250E+01
    -13.811  0.0000E+00  0.2250E+01
    -13.800  0.0000E+00  0.2250E+01
    -13.790  0.0000E+00  0.2250E+01
    -13.779  0.0000E+00  0.2250E+01
    -13.768  0.0000E+00  0.2250E+01
    -13.757  0.0000E+00  0.2250E+01
    -13.746  0.0000E+00  0.2250E+01
    -13.735  0.0000E+00  0.2250E+01
    -13.725  0.0000E+00  0.2250E+01
    -13.714  0.0000E+00  0.2250E+01
    -13.703  0.0000E+00  0.2250E+01
    -13.692  0.0000E+00  0.2250E+01
    -13.681  0.0000E+00  0.2250E+01
    -13.670  0.0000E+00  0.2250E+01
    -13.659  0.0000E+00  0.2250E+01
    -13.649  0.0000E+00  0.2250E+01
    -13.638  0.0000E+00  0.2250E+01
    -13.627  0.4093E-10  0.2250E+01
    -13.616  0.6331E-06  0.2250E+01
    -13.605  0.9959E-03  0.2250E+01
    -13.594  0.1672E+00  0.2252E+01
    -13.583  0.3279E+01  0.2287E+01
    -13.573  0.8558E+01  0.2380E+01
    -13.562  0.3469E+01  0.2418E+01
    -13.551  0.4290E+01  0.2465E+01
    -13.540  0.8411E+01  0.2556E+01
    -13.529  0.2445E+01  0.2582E+01
    -13.518  0.9292E-01  0.2583E+01
    -13.507  0.5411E-03  0.2583E+01
    -13.497  0.4448E-01  0.2584E+01
    -13.486  0.1663E+01  0.2602E+01
    -13.475  0.8577E+01  0.2695E+01
    -13.464  0.1143E+02  0.2819E+01
    -13.453  0.7765E+01  0.2903E+01
    -13.442  0.2003E+01  0.2925E+01
    -13.431  0.6343E+01  0.2994E+01
    -13.421  0.7126E+01  0.3071E+01
    -13.410  0.2398E+01  0.3097E+01
    -13.399  0.7384E+01  0.3177E+01
    -13.388  0.6003E+01  0.3243E+01
    -13.377  0.6800E+00  0.3250E+01
    -13.366  0.9447E-02  0.3250E+01
    -13.356  0.1442E-04  0.3250E+01
    -13.345  0.2271E-08  0.3250E+01
    -13.334  0.3580E-13  0.3250E+01
    -13.323  0.0000E+00  0.3250E+01
    -13.312  0.1705E-14  0.3250E+01
    -13.301  0.1987E-09  0.3250E+01
    -13.290  0.2540E-05  0.3250E+01
    -13.280  0.3313E-02  0.3250E+01
    -13.269  0.4648E+00  0.3255E+01
    -13.258  0.7899E+01  0.3341E+01
    -13.247  0.2263E+02  0.3586E+01
    -13.236  0.2243E+02  0.3830E+01
    -13.225  0.7577E+01  0.3912E+01
    -13.214  0.4264E+00  0.3917E+01
    -13.204  0.2970E-02  0.3917E+01
    -13.193  0.3666E-01  0.3917E+01
    -13.182  0.2008E+01  0.3939E+01
    -13.171  0.1372E+02  0.4088E+01
    -13.160  0.1388E+02  0.4238E+01
    -13.149  0.1112E+02  0.4359E+01
    -13.138  0.1759E+02  0.4550E+01
    -13.128  0.1542E+02  0.4717E+01
    -13.117  0.1538E+02  0.4884E+01
    -13.106  0.3520E+01  0.4923E+01
    -13.095  0.8729E+01  0.5017E+01
    -13.084  0.1669E+02  0.5198E+01
    -13.073  0.4591E+01  0.5248E+01
    -13.062  0.1644E+00  0.5250E+01
    -13.052  0.6751E-03  0.5250E+01
    -13.041  0.2927E-06  0.5250E+01
    -13.030  0.1284E-10  0.5250E+01
    -13.019  0.0000E+00  0.5250E+01
    -13.008  0.0000E+00  0.5250E+01
    -12.997  0.0000E+00  0.5250E+01
    -12.987  0.0000E+00  0.5250E+01
    -12.976  0.0000E+00  0.5250E+01
    -12.965  0.0000E+00  0.5250E+01
    -12.954  0.0000E+00  0.5250E+01
    -12.943  0.0000E+00  0.5250E+01
    -12.932  0.0000E+00  0.5250E+01
    -12.921  0.0000E+00  0.5250E+01
    -12.911  0.0000E+00  0.5250E+01
    -12.900  0.0000E+00  0.5250E+01
    -12.889  0.0000E+00  0.5250E+01
    -12.878  0.0000E+00  0.5250E+01
    -12.867  0.0000E+00  0.5250E+01
    -12.856  0.0000E+00  0.5250E+01
    -12.845  0.0000E+00  0.5250E+01
    -12.835  0.0000E+00  0.5250E+01
    -12.824  0.0000E+00  0.5250E+01
    -12.813  0.0000E+00  0.5250E+01
    -12.802  0.0000E+00  0.5250E+01
    -12.791  0.0000E+00  0.5250E+01
    -12.780  0.0000E+00  0.5250E+01
    -12.769  0.0000E+00  0.5250E+01
    -12.759  0.0000E+00  0.5250E+01
    -12.748  0.0000E+00  0.5250E+01
    -12.737  0.0000E+00  0.5250E+01
    -12.726  0.0000E+00  0.5250E+01
    -12.715  0.0000E+00  0.5250E+01
    -12.704  0.0000E+00  0.5250E+01
    -12.693  0.0000E+00  0.5250E+01
    -12.683  0.0000E+00  0.5250E+01
    -12.672  0.0000E+00  0.5250E+01
    -12.661  0.0000E+00  0.5250E+01
    -12.650  0.1773E-12  0.5250E+01
    -12.639  0.8269E-08  0.5250E+01
    -12.628  0.3876E-04  0.5250E+01
    -12.618  0.1887E-01  0.5250E+01
    -12.607  0.1021E+01  0.5261E+01
    -12.596  0.6894E+01  0.5336E+01
    -12.585  0.6541E+01  0.5407E+01
    -12.574  0.8680E+00  0.5417E+01
    -12.563  0.1427E-01  0.5417E+01
    -12.552  0.2596E-04  0.5417E+01
    -12.542  0.4892E-08  0.5417E+01
    -12.531  0.9207E-13  0.5417E+01
    -12.520  0.2557E-14  0.5417E+01
    -12.509  0.2875E-09  0.5417E+01
    -12.498  0.2912E-05  0.5417E+01
    -12.487  0.3021E-02  0.5417E+01
    -12.476  0.3386E+00  0.5420E+01
    -12.466  0.4535E+01  0.5470E+01
    -12.455  0.8261E+01  0.5559E+01
    -12.444  0.2147E+01  0.5583E+01
    -12.433  0.7241E-01  0.5583E+01
    -12.422  0.2837E-01  0.5584E+01
    -12.411  0.1282E+01  0.5598E+01
    -12.400  0.7573E+01  0.5680E+01
    -12.390  0.1118E+02  0.5801E+01
    -12.379  0.1929E+02  0.6011E+01
    -12.368  0.1228E+02  0.6144E+01
    -12.357  0.2028E+01  0.6166E+01
    -12.346  0.7542E-01  0.6167E+01
    -12.335  0.7439E-01  0.6167E+01
    -12.325  0.2988E+01  0.6200E+01
    -12.314  0.1535E+02  0.6366E+01
    -12.303  0.1119E+02  0.6488E+01
    -12.292  0.2884E+01  0.6519E+01
    -12.281  0.1853E+02  0.6720E+01
    -12.270  0.3156E+02  0.7063E+01
    -12.259  0.9158E+01  0.7162E+01
    -12.249  0.4067E+00  0.7167E+01
    -12.238  0.2319E-02  0.7167E+01
    -12.227  0.1481E-05  0.7167E+01
    -12.216  0.9822E-10  0.7167E+01
    -12.205  0.2199E-12  0.7167E+01
    -12.194  0.1129E-07  0.7167E+01
    -12.183  0.5793E-04  0.7167E+01
    -12.173  0.3081E-01  0.7167E+01
    -12.162  0.1815E+01  0.7187E+01
    -12.151  0.1328E+02  0.7331E+01
    -12.140  0.1393E+02  0.7482E+01
    -12.129  0.4912E+01  0.7535E+01
    -12.118  0.3761E+01  0.7576E+01
    -12.107  0.1588E+01  0.7593E+01
    -12.097  0.1037E+02  0.7706E+01
    -12.086  0.1595E+02  0.7879E+01
    -12.075  0.5677E+01  0.7941E+01
    -12.064  0.8401E+01  0.8032E+01
    -12.053  0.4602E+01  0.8082E+01
    -12.042  0.3625E+01  0.8121E+01
    -12.031  0.8558E+01  0.8214E+01
    -12.021  0.3170E+01  0.8248E+01
    -12.010  0.1560E+00  0.8250E+01
    -11.999  0.8966E-03  0.8250E+01
    -11.988  0.2371E-02  0.8250E+01
    -11.977  0.2910E+00  0.8253E+01
    -11.966  0.4279E+01  0.8300E+01
    -11.956  0.9463E+01  0.8402E+01
    -11.945  0.6501E+01  0.8473E+01
    -11.934  0.2338E+01  0.8498E+01
    -11.923  0.7043E+00  0.8506E+01
    -11.912  0.5495E+01  0.8566E+01
    -11.901  0.7734E+01  0.8649E+01
    -11.890  0.1544E+01  0.8666E+01
    -11.880  0.4529E-01  0.8667E+01
    -11.869  0.6749E+00  0.8674E+01
    -11.858  0.9055E+01  0.8772E+01
    -11.847  0.1653E+02  0.8952E+01
    -11.836  0.4304E+01  0.8998E+01
    -11.825  0.1454E+00  0.9000E+01
    -11.814  0.1592E-01  0.9000E+01
    -11.804  0.9060E+00  0.9010E+01
    -11.793  0.6635E+01  0.9082E+01
    -11.782  0.6901E+01  0.9157E+01
    -11.771  0.4452E+01  0.9205E+01
    -11.760  0.1590E+02  0.9378E+01
    -11.749  0.1033E+02  0.9490E+01
    -11.738  0.1622E+01  0.9508E+01
    -11.728  0.9206E+01  0.9607E+01
    -11.717  0.1647E+02  0.9786E+01
    -11.706  0.4205E+01  0.9832E+01
    -11.695  0.1391E+00  0.9833E+01
    -11.684  0.5252E-03  0.9833E+01
    -11.673  0.2090E-06  0.9833E+01
    -11.662  0.5549E-10  0.9833E+01
    -11.652  0.7069E-06  0.9833E+01
    -11.641  0.1080E-02  0.9833E+01
    -11.630  0.1762E+00  0.9835E+01
    -11.619  0.3362E+01  0.9872E+01
    -11.608  0.8553E+01  0.9965E+01
    -11.597  0.3113E+01  0.9998E+01
    -11.587  0.1842E+00  0.1000E+02
    -11.576  0.1424E+01  0.1002E+02
    -11.565  0.7580E+01  0.1010E+02
    -11.554  0.5716E+01  0.1016E+02
    -11.543  0.5965E+00  0.1017E+02
    -11.532  0.3940E-01  0.1017E+02
    -11.521  0.1849E+01  0.1019E+02
    -11.511  0.1336E+02  0.1033E+02
    -11.500  0.1352E+02  0.1048E+02
    -11.489  0.1921E+01  0.1050E+02
    -11.478  0.3398E-01  0.1050E+02
    -11.467  0.3455E-03  0.1050E+02
    -11.456  0.9080E-01  0.1050E+02
    -11.445  0.3344E+01  0.1054E+02
    -11.435  0.1575E+02  0.1071E+02
    -11.424  0.1054E+02  0.1082E+02
    -11.413  0.9705E+00  0.1083E+02
    -11.402  0.1081E-01  0.1083E+02
    -11.391  0.1312E-04  0.1083E+02
    -11.380  0.2935E-08  0.1083E+02
    -11.369  0.1097E-04  0.1083E+02
    -11.359  0.9514E-02  0.1083E+02
    -11.348  0.8973E+00  0.1084E+02
    -11.337  0.1021E+02  0.1095E+02
    -11.326  0.1596E+02  0.1113E+02
    -11.315  0.4336E+01  0.1117E+02
    -11.304  0.9808E+01  0.1128E+02
    -11.293  0.1622E+02  0.1146E+02
    -11.283  0.3862E+01  0.1150E+02
    -11.272  0.1185E+00  0.1150E+02
    -11.261  0.4137E-03  0.1150E+02
    -11.250  0.1518E-06  0.1150E+02
    -11.239  0.5626E-11  0.1150E+02
    -11.228  0.0000E+00  0.1150E+02
    -11.218  0.0000E+00  0.1150E+02
    -11.207  0.0000E+00  0.1150E+02
    -11.196  0.0000E+00  0.1150E+02
    -11.185  0.0000E+00  0.1150E+02
    -11.174  0.0000E+00  0.1150E+02
    -11.163  0.0000E+00  0.1150E+02
    -11.152  0.0000E+00  0.1150E+02
    -11.142  0.0000E+00  0.1150E+02
    -11.131  0.0000E+00  0.1150E+02
    -11.120  0.0000E+00  0.1150E+02
    -11.109  0.0000E+00  0.1150E+02
    -11.098  0.0000E+00  0.1150E+02
    -11.087  0.1693E-11  0.1150E+02
    -11.076  0.5063E-07  0.1150E+02
    -11.066  0.1527E-03  0.1150E+02
    -11.055  0.4829E-01  0.1150E+02
    -11.044  0.1729E+01  0.1152E+02
    -11.033  0.7935E+01  0.1161E+02
    -11.022  0.5176E+01  0.1166E+02
    -11.011  0.4637E+00  0.1167E+02
    -11.000  0.5020E-02  0.1167E+02
    -10.990  0.5913E-05  0.1167E+02
    -10.979  0.7156E-09  0.1167E+02
    -10.968  0.8525E-14  0.1167E+02
    -10.957  0.0000E+00  0.1167E+02
    -10.946  0.0000E+00  0.1167E+02
    -10.935  0.0000E+00  0.1167E+02
    -10.924  0.0000E+00  0.1167E+02
    -10.914  0.0000E+00  0.1167E+02
    -10.903  0.0000E+00  0.1167E+02
    -10.892  0.0000E+00  0.1167E+02
    -10.881  0.0000E+00  0.1167E+02
    -10.870  0.0000E+00  0.1167E+02
    -10.859  0.0000E+00  0.1167E+02
    -10.849  0.6155E-12  0.1167E+02
    -10.838  0.2253E-07  0.1167E+02
    -10.827  0.8295E-04  0.1167E+02
    -10.816  0.3188E-01  0.1167E+02
    -10.805  0.1375E+01  0.1168E+02
    -10.794  0.7513E+01  0.1176E+02
    -10.783  0.5807E+01  0.1183E+02
    -10.773  0.6219E+00  0.1183E+02
    -10.762  0.8139E-02  0.1183E+02
    -10.751  0.1167E-04  0.1183E+02
    -10.740  0.1727E-08  0.1183E+02
    -10.729  0.2557E-13  0.1183E+02
    -10.718  0.0000E+00  0.1183E+02
    -10.707  0.0000E+00  0.1183E+02
    -10.697  0.0000E+00  0.1183E+02
    -10.686  0.0000E+00  0.1183E+02
    -10.675  0.1432E-12  0.1183E+02
    -10.664  0.6983E-08  0.1183E+02
    -10.653  0.3407E-04  0.1183E+02
    -10.642  0.1725E-01  0.1183E+02
    -10.631  0.9693E+00  0.1184E+02
    -10.621  0.6782E+01  0.1192E+02
    -10.610  0.6657E+01  0.1199E+02
    -10.599  0.9154E+00  0.1200E+02
    -10.588  0.1563E-01  0.1200E+02
    -10.577  0.2958E-04  0.1200E+02
    -10.566  0.5801E-08  0.1200E+02
    -10.555  0.1142E-12  0.1200E+02
    -10.545  0.0000E+00  0.1200E+02
    -10.534  0.0000E+00  0.1200E+02
    -10.523  0.0000E+00  0.1200E+02
    -10.512  0.0000E+00  0.1200E+02
    -10.501  0.0000E+00  0.1200E+02
    -10.490  0.0000E+00  0.1200E+02
    -10.480  0.0000E+00  0.1200E+02
    -10.469  0.0000E+00  0.1200E+02
    -10.458  0.0000E+00  0.1200E+02
    -10.447  0.0000E+00  0.1200E+02
    -10.436  0.0000E+00  0.1200E+02
    -10.425  0.0000E+00  0.1200E+02
    -10.414  0.0000E+00  0.1200E+02
    -10.404  0.0000E+00  0.1200E+02
    -10.393  0.0000E+00  0.1200E+02
    -10.382  0.0000E+00  0.1200E+02
    -10.371  0.0000E+00  0.1200E+02
    -10.360  0.0000E+00  0.1200E+02
    -10.349  0.0000E+00  0.1200E+02
    -10.338  0.0000E+00  0.1200E+02
    -10.328  0.0000E+00  0.1200E+02
    -10.317  0.0000E+00  0.1200E+02
    -10.306  0.0000E+00  0.1200E+02
    -10.295  0.3828E-12  0.1200E+02
    -10.284  0.1539E-07  0.1200E+02
    -10.273  0.6213E-04  0.1200E+02
    -10.262  0.2614E-01  0.1200E+02
    -10.252  0.1230E+01  0.1201E+02
    -10.241  0.7288E+01  0.1209E+02
    -10.230  0.6094E+01  0.1216E+02
    -10.219  0.7088E+00  0.1217E+02
    -10.208  0.1013E-01  0.1217E+02
    -10.197  0.2236E-04  0.1217E+02
    -10.187  0.5339E-02  0.1217E+02
    -10.176  0.4816E+00  0.1217E+02
    -10.165  0.5256E+01  0.1223E+02
    -10.154  0.8042E+01  0.1232E+02
    -10.143  0.4840E+01  0.1237E+02
    -10.132  0.8601E+01  0.1246E+02
    -10.121  0.3316E+01  0.1250E+02
    -10.111  0.1711E+00  0.1250E+02
    -10.100  0.1032E-02  0.1250E+02
    -10.089  0.6647E-06  0.1250E+02
    -10.078  0.4354E-10  0.1250E+02
    -10.067  0.0000E+00  0.1250E+02
    -10.056  0.0000E+00  0.1250E+02
    -10.045  0.0000E+00  0.1250E+02
    -10.035  0.0000E+00  0.1250E+02
    -10.024  0.0000E+00  0.1250E+02
    -10.013  0.0000E+00  0.1250E+02
    -10.002  0.0000E+00  0.1250E+02
     -9.991  0.0000E+00  0.1250E+02
     -9.980  0.0000E+00  0.1250E+02
     -9.969  0.0000E+00  0.1250E+02
     -9.959  0.0000E+00  0.1250E+02
     -9.948  0.0000E+00  0.1250E+02
     -9.937  0.0000E+00  0.1250E+02
     -9.926  0.0000E+00  0.1250E+02
     -9.915  0.0000E+00  0.1250E+02
     -9.904  0.0000E+00  0.1250E+02
     -9.893  0.0000E+00  0.1250E+02
     -9.883  0.0000E+00  0.1250E+02
     -9.872  0.0000E+00  0.1250E+02
     -9.861  0.0000E+00  0.1250E+02
     -9.850  0.0000E+00  0.1250E+02
     -9.839  0.0000E+00  0.1250E+02
     -9.828  0.0000E+00  0.1250E+02
     -9.818  0.0000E+00  0.1250E+02
     -9.807  0.2046E-13  0.1250E+02
     -9.796  0.1674E-08  0.1250E+02
     -9.785  0.1335E-04  0.1250E+02
     -9.774  0.1095E-01  0.1250E+02
     -9.763  0.9779E+00  0.1251E+02
     -9.752  0.1058E+02  0.1263E+02
     -9.742  0.1573E+02  0.1280E+02
     -9.731  0.3325E+01  0.1283E+02
     -9.720  0.8987E-01  0.1283E+02
     -9.709  0.2746E-03  0.1283E+02
     -9.698  0.8791E-07  0.1283E+02
     -9.687  0.2837E-11  0.1283E+02
     -9.676  0.0000E+00  0.1283E+02
     -9.666  0.0000E+00  0.1283E+02
     -9.655  0.0000E+00  0.1283E+02
     -9.644  0.4160E-12  0.1283E+02
     -9.633  0.1881E-07  0.1283E+02
     -9.622  0.8550E-04  0.1283E+02
     -9.611  0.4039E-01  0.1283E+02
     -9.600  0.2123E+01  0.1286E+02
     -9.590  0.1396E+02  0.1301E+02
     -9.579  0.1290E+02  0.1315E+02
     -9.568  0.1666E+01  0.1317E+02
     -9.557  0.2748E-01  0.1317E+02
     -9.546  0.1520E+00  0.1317E+02
     -9.535  0.3130E+01  0.1320E+02
     -9.524  0.8554E+01  0.1330E+02
     -9.514  0.3345E+01  0.1333E+02
     -9.503  0.1991E+00  0.1333E+02
     -9.492  0.1604E+01  0.1335E+02
     -9.481  0.1319E+02  0.1349E+02
     -9.470  0.2173E+02  0.1373E+02
     -9.459  0.1914E+02  0.1394E+02
     -9.449  0.5703E+01  0.1400E+02
     -9.438  0.5294E+01  0.1406E+02
     -9.427  0.1688E+02  0.1424E+02
     -9.416  0.8240E+01  0.1433E+02
     -9.405  0.3988E+01  0.1437E+02
     -9.394  0.8549E+01  0.1447E+02
     -9.383  0.3011E+01  0.1450E+02
     -9.373  0.1404E+00  0.1450E+02
     -9.362  0.7612E-03  0.1450E+02
     -9.351  0.4391E-06  0.1450E+02
     -9.340  0.2572E-10  0.1450E+02
     -9.329  0.3580E-13  0.1450E+02
     -9.318  0.2624E-08  0.1450E+02
     -9.307  0.1889E-04  0.1450E+02
     -9.297  0.1401E-01  0.1450E+02
     -9.286  0.1136E+01  0.1451E+02
     -9.275  0.1122E+02  0.1463E+02
     -9.264  0.1531E+02  0.1480E+02
     -9.253  0.2961E+01  0.1483E+02
     -9.242  0.7277E-01  0.1483E+02
     -9.231  0.2013E-03  0.1483E+02
     -9.221  0.7115E-06  0.1483E+02
     -9.210  0.1225E-02  0.1483E+02
     -9.199  0.2443E+00  0.1484E+02
     -9.188  0.5751E+01  0.1490E+02
     -9.177  0.2004E+02  0.1512E+02
     -9.166  0.1594E+02  0.1529E+02
     -9.155  0.3904E+01  0.1533E+02
     -9.145  0.1915E+00  0.1533E+02
     -9.134  0.1202E-02  0.1533E+02
     -9.123  0.8168E-06  0.1533E+02
     -9.112  0.5657E-10  0.1533E+02
     -9.101  0.0000E+00  0.1533E+02
     -9.090  0.1116E-10  0.1533E+02
     -9.080  0.2618E-06  0.1533E+02
     -9.069  0.6213E-03  0.1533E+02
     -9.058  0.1556E+00  0.1534E+02
     -9.047  0.4460E+01  0.1538E+02
     -9.036  0.1662E+02  0.1556E+02
     -9.025  0.8919E+01  0.1566E+02
     -9.014  0.3803E+01  0.1570E+02
     -9.004  0.1555E+02  0.1587E+02
     -8.993  0.1086E+02  0.1599E+02
     -8.982  0.1050E+01  0.1600E+02
     -8.971  0.1237E-01  0.1600E+02
     -8.960  0.1597E-04  0.1600E+02
     -8.949  0.2143E-08  0.1600E+02
     -8.938  0.2428E-06  0.1600E+02
     -8.928  0.4917E-03  0.1600E+02
     -8.917  0.1059E+00  0.1600E+02
     -8.906  0.2740E+01  0.1603E+02
     -8.895  0.1255E+02  0.1617E+02
     -8.884  0.2032E+02  0.1639E+02
     -8.873  0.9624E+01  0.1649E+02
     -8.862  0.1183E+01  0.1650E+02
     -8.852  0.5575E+01  0.1657E+02
     -8.841  0.1468E+02  0.1672E+02
     -8.830  0.1765E+02  0.1692E+02
     -8.819  0.7170E+01  0.1699E+02
     -8.808  0.5460E+00  0.1700E+02
     -8.797  0.2143E-01  0.1700E+02
     -8.786  0.1217E+01  0.1701E+02
     -8.776  0.1152E+02  0.1714E+02
     -8.765  0.1510E+02  0.1730E+02
     -8.754  0.2801E+01  0.1733E+02
     -8.743  0.2171E+00  0.1733E+02
     -8.732  0.3124E+01  0.1737E+02
     -8.721  0.8554E+01  0.1746E+02
     -8.711  0.3352E+01  0.1750E+02
     -8.700  0.1750E+00  0.1750E+02
     -8.689  0.6621E-02  0.1750E+02
     -8.678  0.6424E+00  0.1751E+02
     -8.667  0.8863E+01  0.1760E+02
     -8.656  0.1661E+02  0.1778E+02
     -8.645  0.4441E+01  0.1783E+02
     -8.635  0.1546E+00  0.1783E+02
     -8.624  0.5971E-01  0.1783E+02
     -8.613  0.1382E+01  0.1785E+02
     -8.602  0.4254E+01  0.1790E+02
     -8.591  0.1910E+01  0.1792E+02
     -8.580  0.1624E+01  0.1793E+02
     -8.569  0.7697E+01  0.1802E+02
     -8.559  0.5550E+01  0.1808E+02
     -8.548  0.5541E+00  0.1808E+02
     -8.537  0.1823E+00  0.1809E+02
     -8.526  0.3537E+01  0.1812E+02
     -8.515  0.1611E+02  0.1830E+02
     -8.504  0.1622E+02  0.1847E+02
     -8.493  0.5585E+01  0.1854E+02
     -8.483  0.3765E+01  0.1858E+02
     -8.472  0.6551E+00  0.1858E+02
     -8.461  0.1469E-01  0.1858E+02
     -8.450  0.4387E-01  0.1858E+02
     -8.439  0.2903E+01  0.1862E+02
     -8.428  0.2431E+02  0.1888E+02
     -8.417  0.2904E+02  0.1919E+02
     -8.407  0.5018E+01  0.1925E+02
     -8.396  0.1124E+00  0.1925E+02
     -8.385  0.2897E-03  0.1925E+02
     -8.374  0.7986E-07  0.1925E+02
     -8.363  0.2264E-11  0.1925E+02
     -8.352  0.0000E+00  0.1925E+02
     -8.342  0.0000E+00  0.1925E+02
     -8.331  0.0000E+00  0.1925E+02
     -8.320  0.0000E+00  0.1925E+02
     -8.309  0.1236E-12  0.1925E+02
     -8.298  0.6196E-08  0.1925E+02
     -8.287  0.3110E-04  0.1925E+02
     -8.276  0.1619E-01  0.1925E+02
     -8.266  0.9342E+00  0.1926E+02
     -8.255  0.6702E+01  0.1933E+02
     -8.244  0.6738E+01  0.1941E+02
     -8.233  0.9499E+00  0.1942E+02
     -8.222  0.1666E-01  0.1942E+02
     -8.211  0.3241E-04  0.1942E+02
     -8.200  0.6540E-08  0.1942E+02
     -8.190  0.7826E-12  0.1942E+02
     -8.179  0.2697E-07  0.1942E+02
     -8.168  0.1124E-03  0.1942E+02
     -8.157  0.4880E-01  0.1942E+02
     -8.146  0.2366E+01  0.1944E+02
     -8.135  0.1441E+02  0.1960E+02
     -8.124  0.1238E+02  0.1973E+02
     -8.114  0.1481E+01  0.1975E+02
     -8.103  0.2181E-01  0.1975E+02
     -8.092  0.3537E-04  0.1975E+02
     -8.081  0.5926E-08  0.1975E+02
     -8.070  0.9889E-13  0.1975E+02
     -8.059  0.0000E+00  0.1975E+02
     -8.048  0.0000E+00  0.1975E+02
     -8.038  0.1023E-13  0.1975E+02
     -8.027  0.8281E-09  0.1975E+02
     -8.016  0.6621E-05  0.1975E+02
     -8.005  0.5441E-02  0.1975E+02
     -7.994  0.4872E+00  0.1976E+02
     -7.983  0.5280E+01  0.1981E+02
     -7.973  0.7872E+01  0.1990E+02
     -7.962  0.1667E+01  0.1992E+02
     -7.951  0.4515E-01  0.1992E+02
     -7.940  0.1383E-03  0.1992E+02
     -7.929  0.3330E-04  0.1992E+02
     -7.918  0.2089E-01  0.1992E+02
     -7.907  0.1444E+01  0.1993E+02
     -7.897  0.1227E+02  0.2007E+02
     -7.886  0.1451E+02  0.2022E+02
     -7.875  0.2420E+01  0.2025E+02
     -7.864  0.5081E-01  0.2025E+02
     -7.853  0.1192E-03  0.2025E+02
     -7.842  0.2912E-07  0.2025E+02
     -7.831  0.7161E-12  0.2025E+02
     -7.821  0.0000E+00  0.2025E+02
     -7.810  0.0000E+00  0.2025E+02
     -7.799  0.0000E+00  0.2025E+02
     -7.788  0.0000E+00  0.2025E+02
     -7.777  0.0000E+00  0.2025E+02
     -7.766  0.0000E+00  0.2025E+02
     -7.755  0.0000E+00  0.2025E+02
     -7.745  0.0000E+00  0.2025E+02
     -7.734  0.0000E+00  0.2025E+02
     -7.723  0.0000E+00  0.2025E+02
     -7.712  0.0000E+00  0.2025E+02
     -7.701  0.0000E+00  0.2025E+02
     -7.690  0.0000E+00  0.2025E+02
     -7.680  0.0000E+00  0.2025E+02
     -7.669  0.0000E+00  0.2025E+02
     -7.658  0.0000E+00  0.2025E+02
     -7.647  0.0000E+00  0.2025E+02
     -7.636  0.0000E+00  0.2025E+02
     -7.625  0.0000E+00  0.2025E+02
     -7.614  0.0000E+00  0.2025E+02
     -7.604  0.0000E+00  0.2025E+02
     -7.593  0.0000E+00  0.2025E+02
     -7.582  0.5115E-14  0.2025E+02
     -7.571  0.5282E-09  0.2025E+02
     -7.560  0.5452E-05  0.2025E+02
     -7.549  0.5760E-02  0.2025E+02
     -7.538  0.6573E+00  0.2026E+02
     -7.528  0.8953E+01  0.2035E+02
     -7.517  0.1657E+02  0.2053E+02
     -7.506  0.4377E+01  0.2058E+02
     -7.495  0.1501E+00  0.2058E+02
     -7.484  0.5885E-03  0.2058E+02
     -7.473  0.4586E-05  0.2058E+02
     -7.462  0.4887E-02  0.2058E+02
     -7.452  0.5930E+00  0.2059E+02
     -7.441  0.8564E+01  0.2068E+02
     -7.430  0.1758E+02  0.2087E+02
     -7.419  0.1468E+02  0.2103E+02
     -7.408  0.1623E+02  0.2121E+02
     -7.397  0.3666E+01  0.2125E+02
     -7.386  0.1075E+00  0.2125E+02
     -7.376  0.3579E-03  0.2125E+02
     -7.365  0.1252E-06  0.2125E+02
     -7.354  0.4412E-11  0.2125E+02
     -7.343  0.0000E+00  0.2125E+02
     -7.332  0.0000E+00  0.2125E+02
     -7.321  0.0000E+00  0.2125E+02
     -7.311  0.0000E+00  0.2125E+02
     -7.300  0.0000E+00  0.2125E+02
     -7.289  0.0000E+00  0.2125E+02
     -7.278  0.1023E-13  0.2125E+02
     -7.267  0.8410E-09  0.2125E+02
     -7.256  0.6700E-05  0.2125E+02
     -7.245  0.5488E-02  0.2125E+02
     -7.235  0.4897E+00  0.2126E+02
     -7.224  0.5291E+01  0.2131E+02
     -7.213  0.7865E+01  0.2140E+02
     -7.202  0.1661E+01  0.2142E+02
     -7.191  0.4483E-01  0.2142E+02
     -7.180  0.1368E-03  0.2142E+02
     -7.169  0.4376E-07  0.2142E+02
     -7.159  0.1410E-11  0.2142E+02
     -7.148  0.0000E+00  0.2142E+02
     -7.137  0.0000E+00  0.2142E+02
     -7.126  0.0000E+00  0.2142E+02
     -7.115  0.0000E+00  0.2142E+02
     -7.104  0.0000E+00  0.2142E+02
     -7.093  0.0000E+00  0.2142E+02
     -7.083  0.4262E-14  0.2142E+02
     -7.072  0.3693E-09  0.2142E+02
     -7.061  0.3539E-05  0.2142E+02
     -7.050  0.3475E-02  0.2142E+02
     -7.039  0.3696E+00  0.2142E+02
     -7.028  0.4709E+01  0.2147E+02
     -7.017  0.8183E+01  0.2156E+02
     -7.007  0.2027E+01  0.2158E+02
     -6.996  0.6490E-01  0.2158E+02
     -6.985  0.2369E-03  0.2158E+02
     -6.974  0.9101E-07  0.2158E+02
     -6.963  0.7556E-11  0.2158E+02
     -6.952  0.1010E-06  0.2158E+02
     -6.942  0.2560E-03  0.2158E+02
     -6.931  0.6837E-01  0.2158E+02
     -6.920  0.2084E+01  0.2161E+02
     -6.909  0.8237E+01  0.2170E+02
     -6.898  0.5535E+01  0.2176E+02
     -6.887  0.6999E+01  0.2183E+02