       N       E                     dE             d eps       ncg     rms          rms(c)
DAV:   1     0.360091031005E+03    0.36009E+03   -0.20419E+04  1600   0.104E+03
DAV:   2    -0.236819702221E+02   -0.38377E+03   -0.37241E+03  2288   0.210E+02
DAV:   3    -0.627293204675E+02   -0.39047E+02   -0.38419E+02  1864   0.698E+01
DAV:   4    -0.642205169955E+02   -0.14912E+01   -0.14833E+01  2392   0.151E+01
DAV:   5    -0.642601024045E+02   -0.39585E-01   -0.39549E-01  2440   0.239E+00    0.178E+01
DAV:   6    -0.639205131484E+02    0.33959E+00   -0.20406E-01  2008   0.171E+00    0.105E+01
DAV:   7    -0.637699107385E+02    0.15060E+00   -0.38673E-01  1960   0.232E+00    0.482E-01
DAV:   8    -0.637710183058E+02   -0.11076E-02   -0.29986E-02  2024   0.711E-01    0.277E-01
DAV:   9    -0.637709595680E+02    0.58738E-04   -0.20635E-03  2376   0.186E-01    0.204E-01
DAV:  10    -0.637707722525E+02    0.18732E-03   -0.69854E-04  1944   0.103E-01    0.965E-02
DAV:  11    -0.637706781268E+02    0.94126E-04   -0.25781E-04  2072   0.658E-02    0.387E-02
DAV:  12    -0.637707356230E+02   -0.57496E-04   -0.31313E-05  1856   0.227E-02    0.190E-02
DAV:  13    -0.637709036057E+02   -0.16798E-03   -0.12136E-04  1920   0.373E-02    0.165E-02
DAV:  14    -0.637710156794E+02   -0.11207E-03   -0.21689E-05  1592   0.169E-02    0.188E-02
DAV:  15    -0.637711743246E+02   -0.15865E-03   -0.81739E-06  1368   0.116E-02    0.499E-03
DAV:  16    -0.637713156942E+02   -0.14137E-03   -0.15026E-05  1480   0.103E-02    0.721E-03
DAV:  17    -0.637713513617E+02   -0.35667E-04   -0.12402E-06  1328   0.431E-03    0.245E-03
DAV:  18    -0.637713866407E+02   -0.35279E-04   -0.91787E-07  1344   0.307E-03    0.155E-03
DAV:  19    -0.637713966015E+02   -0.99608E-05   -0.15643E-07  1184   0.156E-03
   1 F= -.65857043E+02 E0= -.65857043E+02  d E =-.287766E-11
