 vasp.5.4.4.18Apr17-6-g9f103f2a35 (build Jun 20 2017 18:00:50) complex          
  
 executed on             LinuxIFC date 2018.03.22  15:19:17
 running on   32 total cores
 distrk:  each k-point on   32 cores,    1 groups
 distr:  one band on NCORES_PER_BAND=   8 cores,    4 groups


--------------------------------------------------------------------------------------------------------


 INCAR:
 POTCAR:    PAW_PBE P 06Sep2000                   
 POTCAR:    PAW_PBE P 06Sep2000                   
   VRHFIN =P : s2p3                                                             
   LEXCH  = PE                                                                  
   EATOM  =   176.0430 eV,   12.9388 Ry                                         
                                                                                
   TITEL  = PAW_PBE P 06Sep2000                                                 
   LULTRA =        F    use ultrasoft PP ?                                      
   IUNSCR =        1    unscreen: 0-lin 1-nonlin 2-no                           
   RPACOR =    1.500    partial core radius                                     
   POMASS =   30.974; ZVAL   =    5.000    mass and valenz                      
   RCORE  =    1.900    outmost cutoff radius                                   
   RWIGS  =    2.330; RWIGS  =    1.233    wigner-seitz radius (au A)           
   ENMAX  =  255.040; ENMIN  =  191.280 eV                                      
   ICORE  =        2    local potential                                         
   LCOR   =        T    correct aug charges                                     
   LPAW   =        T    paw PP                                                  
   EAUG   =  342.924                                                            
   DEXC   =    0.000                                                            
   RMAX   =    1.935    core radius for proj-oper                               
   RAUG   =    1.300    factor for augmentation sphere                          
   RDEP   =    1.931    radius for radial grids                                 
   RDEPT  =    1.794    core radius for aug-charge                              
                                                                                
   Atomic configuration                                                         
    6 entries                                                                   
     n  l   j            E        occ.                                          
     1  0  0.50     -2084.0982   2.0000                                         
     2  0  0.50      -173.9859   2.0000                                         
     2  1  1.50      -124.4865   6.0000                                         
     3  0  0.50       -13.9692   2.0000                                         
     3  1  0.50        -5.5067   3.0000                                         
     3  2  1.50        -5.4423   0.0000                                         
   Description                                                                  
     l       E           TYP  RCUT    TYP  RCUT                                 
     0    -13.9691527     23  1.900                                             
     0    -11.7794650     23  1.900                                             
     1     -5.5066937     23  1.900                                             
     1     -0.2556953     23  1.900                                             
     2     -5.4423304     23  1.900                                             
  local pseudopotential read in
  partial core-charges read in
  partial kinetic energy density read in
  atomic valenz-charges read in
  non local Contribution for L=           0  read in
    real space projection operators read in
  non local Contribution for L=           0  read in
    real space projection operators read in
  non local Contribution for L=           1  read in
    real space projection operators read in
  non local Contribution for L=           1  read in
    real space projection operators read in
    PAW grid and wavefunctions read in
 
   number of l-projection  operators is LMAX  =           4
   number of lm-projection operators is LMMAX =           8
 
  PAW_PBE P 06Sep2000                   :
 energy of atom  1       EATOM= -176.0430
 kinetic energy error for atom=    0.0019 (will be added to EATOM!!)
 
 
 POSCAR: P12                                     
  positions in direct lattice
  No initial velocities read in
 exchange correlation table for  LEXCH =        8
   RHO(1)=    0.500       N(1)  =     2000
   RHO(2)=  100.500       N(2)  =     4000
 


--------------------------------------------------------------------------------------------------------


 ion  position               nearest neighbor table
   1  0.000  0.307  0.919-   2 2.23   2 2.23   3 2.26
   2  0.500  0.307  0.581-   1 2.23   1 2.23   4 2.26
   3  0.000  0.372  0.081-   4 2.23   4 2.23   1 2.26
   4  0.500  0.372  0.419-   3 2.23   3 2.23   2 2.26
   5  0.500  0.467  0.419-   6 2.23   6 2.23   7 2.26
   6  0.000  0.467  0.081-   5 2.23   5 2.23   8 2.26
   7  0.500  0.533  0.581-   8 2.23   8 2.23   5 2.26
   8  0.000  0.533  0.919-   7 2.23   7 2.23   6 2.26
   9  0.000  0.628  0.919-  10 2.23  10 2.23  11 2.26
  10  0.500  0.628  0.581-   9 2.23   9 2.23  12 2.26
  11  0.000  0.693  0.081-  12 2.23  12 2.23   9 2.26
  12  0.500  0.693  0.419-  11 2.23  11 2.23  10 2.26
 
  LATTYP: Found a simple orthorhombic cell.
 ALAT       =     3.3428860000
 B/A-ratio  =     1.3086988309
 C/A-ratio  =     9.7527732026
  
  Lattice vectors:
  
 A1 = (  -3.3428860000,   0.0000000000,   0.0000000000)
 A2 = (   0.0000000000,   0.0000000000,  -4.3748310000)
 A3 = (   0.0000000000, -32.6024090000,   0.0000000000)


Analysis of symmetry for initial positions (statically):
=====================================================================
 Subroutine PRICEL returns:
 Original cell was already a primitive cell.
 

 Routine SETGRP: Setting up the symmetry group for a 
 simple orthorhombic supercell.


 Subroutine GETGRP returns: Found  8 space group operations
 (whereof  4 operations were pure point group operations)
 out of a pool of  8 trial point group operations.


The static configuration has the point symmetry C_2h.
 The point group associated with its full space group is D_2h.


Analysis of symmetry for dynamics (positions and initial velocities):
=====================================================================
 Subroutine PRICEL returns:
 Original cell was already a primitive cell.
 

 Routine SETGRP: Setting up the symmetry group for a 
 simple orthorhombic supercell.


 Subroutine GETGRP returns: Found  8 space group operations
 (whereof  4 operations were pure point group operations)
 out of a pool of  8 trial point group operations.


The dynamic configuration has the point symmetry C_2h.
 The point group associated with its full space group is D_2h.


 Subroutine INISYM returns: Found  8 space group operations
 (whereof  4 operations are pure point group operations),
 and found     1 'primitive' translations

 
 
 KPOINTS: Automatic mesh                          

Automatic generation of k-mesh.
Space group operators:
 irot       det(A)        alpha          n_x          n_y          n_z        tau_x        tau_y        tau_z
    1     1.000000     0.000001     1.000000     0.000000     0.000000     0.000000     0.000000     0.000000
    2    -1.000000     0.000001     1.000000     0.000000     0.000000     0.000000     0.000000     0.000000
    3     1.000000   179.999999     1.000000     0.000000     0.000000     0.000000     0.000000     0.000000
    4    -1.000000   179.999999     1.000000     0.000000     0.000000     0.000000     0.000000     0.000000
    5     1.000000   179.999999     0.000000     1.000000     0.000000    -0.500000     0.000000    -0.500000
    6    -1.000000   179.999999     0.000000     1.000000     0.000000    -0.500000     0.000000    -0.500000
    7     1.000000   179.999999     0.000000     0.000000     1.000000    -0.500000     0.000000    -0.500000
    8    -1.000000   179.999999     0.000000     0.000000     1.000000    -0.500000     0.000000    -0.500000
 
 Subroutine IBZKPT returns following result:
 ===========================================
 
 Found     20 irreducible k-points:
 
 Following reciprocal coordinates:
            Coordinates               Weight
  0.000000  0.000000  0.000000      1.000000
  0.125000  0.000000  0.000000      2.000000
  0.250000  0.000000  0.000000      2.000000
  0.375000  0.000000  0.000000      2.000000
  0.500000  0.000000  0.000000      1.000000
  0.000000  0.000000  0.142857      2.000000
  0.125000  0.000000  0.142857      4.000000
  0.250000  0.000000  0.142857      4.000000
  0.375000  0.000000  0.142857      4.000000
  0.500000  0.000000  0.142857      2.000000
  0.000000  0.000000  0.285714      2.000000
  0.125000  0.000000  0.285714      4.000000
  0.250000  0.000000  0.285714      4.000000
  0.375000  0.000000  0.285714      4.000000
  0.500000  0.000000  0.285714      2.000000
  0.000000  0.000000  0.428571      2.000000
  0.125000  0.000000  0.428571      4.000000
  0.250000  0.000000  0.428571      4.000000
  0.375000  0.000000  0.428571      4.000000
  0.500000  0.000000  0.428571      2.000000
 
 Following cartesian coordinates:
            Coordinates               Weight
  0.000000  0.000000  0.000000      1.000000
  0.037393  0.000000  0.000000      2.000000
  0.074786  0.000000  0.000000      2.000000
  0.112179  0.000000  0.000000      2.000000
  0.149571  0.000000  0.000000      1.000000
  0.000000  0.000000  0.032654      2.000000
  0.037393  0.000000  0.032654      4.000000
  0.074786  0.000000  0.032654      4.000000
  0.112179  0.000000  0.032654      4.000000
  0.149571  0.000000  0.032654      2.000000
  0.000000  0.000000  0.065309      2.000000
  0.037393  0.000000  0.065309      4.000000
  0.074786  0.000000  0.065309      4.000000
  0.112179  0.000000  0.065309      4.000000
  0.149571  0.000000  0.065309      2.000000
  0.000000  0.000000  0.097963      2.000000
  0.037393  0.000000  0.097963      4.000000
  0.074786  0.000000  0.097963      4.000000
  0.112179  0.000000  0.097963      4.000000
  0.149571  0.000000  0.097963      2.000000
 


--------------------------------------------------------------------------------------------------------




 Dimension of arrays:
   k-points           NKPTS =     20   k-points in BZ     NKDIM =     20   number of bands    NBANDS=     40
   number of dos      NEDOS =   2000   number of ions     NIONS =     12
   non local maximal  LDIM  =      4   non local SUM 2l+1 LMDIM =      8
   total plane-waves  NPLWV =  77760
   max r-space proj   IRMAX =      1   max aug-charges    IRDMAX=   5162
   dimension x,y,z NGX =    18 NGY =  180 NGZ =   24
   dimension x,y,z NGXF=    36 NGYF=  360 NGZF=   48
   support grid    NGXF=    36 NGYF=  360 NGZF=   48
   ions per type =              12
   NGX,Y,Z   is equivalent  to a cutoff of   8.95,  9.18,  9.12 a.u.
   NGXF,Y,Z  is equivalent  to a cutoff of  17.90, 18.36, 18.24 a.u.

 SYSTEM =  Generic Input                           
 POSCAR =  P12                                     

 Startparameter for this run:
   NWRITE =      2    write-flag & timer
   PREC   = normal    normal or accurate (medium, high low for compatibility)
   ISTART =      0    job   : 0-new  1-cont  2-samecut
   ICHARG =      2    charge: 1-file 2-atom 10-const
   ISPIN  =      1    spin polarized calculation?
   LNONCOLLINEAR =      F non collinear calculations
   LSORBIT =      F    spin-orbit coupling
   INIWAV =      1    electr: 0-lowe 1-rand  2-diag
   LASPH  =      T    aspherical Exc in radial PAW
   METAGGA=      F    non-selfconsistent MetaGGA calc.

 Electronic Relaxation 1
   ENCUT  =  450.0 eV  33.07 Ry    5.75 a.u.   5.78 56.39  7.57*2*pi/ulx,y,z
   ENINI  =  450.0     initial cutoff
   ENAUG  =  342.9 eV  augmentation charge cutoff
   NELM   =    200;   NELMIN=  2; NELMDL=  0     # of ELM steps 
   EDIFF  = 0.1E-04   stopping-criterion for ELM
   LREAL  =      F    real-space projection
   NLSPLINE    = F    spline interpolate recip. space projectors
   LCOMPAT=      F    compatible to vasp.4.4
   GGA_COMPAT  = T    GGA compatible to vasp.4.4-vasp.4.6
   LMAXPAW     = -100 max onsite density
   LMAXMIX     =    2 max onsite mixed and CHGCAR
   VOSKOWN=      0    Vosko Wilk Nusair interpolation
   ROPT   =    0.00000
 Ionic relaxation
   EDIFFG = -.2E-01   stopping-criterion for IOM
   NSW    =      0    number of steps for IOM
   NBLOCK =      1;   KBLOCK =      1    inner block; outer block 
   IBRION =     -1    ionic relax: 0-MD 1-quasi-New 2-CG
   NFREE  =      1    steps in history (QN), initial steepest desc. (CG)
   ISIF   =      3    stress and relaxation
   IWAVPR =     11    prediction:  0-non 1-charg 2-wave 3-comb
   ISYM   =      2    0-nonsym 1-usesym 2-fastsym
   LCORR  =      T    Harris-Foulkes like correction to forces

   POTIM  = 0.5000    time-step for ionic-motion
   TEIN   =    0.0    initial temperature
   TEBEG  =    0.0;   TEEND  =   0.0 temperature during run
   SMASS  =  -3.00    Nose mass-parameter (am)
   estimated Nose-frequenzy (Omega)   =  0.10E-29 period in steps =****** mass=  -0.255E-27a.u.
   SCALEE = 1.0000    scale energy and forces
   NPACO  =    256;   APACO  = 16.0  distance and # of slots for P.C.
   PSTRESS=    0.0 pullay stress

  Mass of Ions in am
   POMASS =  30.97
  Ionic Valenz
   ZVAL   =   5.00
  Atomic Wigner-Seitz radii
   RWIGS  =  -1.00
  virtual crystal weights 
   VCA    =   1.00
   NELECT =      60.0000    total number of electrons
   NUPDOWN=      -1.0000    fix difference up-down

 DOS related values:
   EMIN   =  10.00;   EMAX   =-10.00  energy-range for DOS
   EFERMI =   0.00
   ISMEAR =     0;   SIGMA  =   0.01  broadening in eV -4-tet -1-fermi 0-gaus

 Electronic relaxation 2 (details)
   IALGO  =     38    algorithm
   LDIAG  =      T    sub-space diagonalisation (order eigenvalues)
   LSUBROT=      F    optimize rotation matrix (better conditioning)
   TURBO    =      0    0=normal 1=particle mesh
   IRESTART =      0    0=no restart 2=restart with 2 vectors
   NREBOOT  =      0    no. of reboots
   NMIN     =      0    reboot dimension
   EREF     =   0.00    reference energy to select bands
   IMIX   =      4    mixing-type and parameters
     AMIX     =   0.40;   BMIX     =  1.00
     AMIX_MAG =   1.60;   BMIX_MAG =  1.00
     AMIN     =   0.10
     WC   =   100.;   INIMIX=   1;  MIXPRE=   1;  MAXMIX= -45

 Intra band minimization:
   WEIMIN = 0.0000     energy-eigenvalue tresh-hold
   EBREAK =  0.63E-07  absolut break condition
   DEPER  =   0.30     relativ break condition  

   TIME   =   0.40     timestep for ELM

  volume/ion in A,a.u.               =      39.73       268.13
  Fermi-wavevector in a.u.,A,eV,Ry     =   0.820379  1.550291  9.157011  0.673021
  Thomas-Fermi vector in A             =   1.931350
 
 Write flags
   LWAVE        =      T    write WAVECAR
   LDOWNSAMPLE  =      F    k-point downsampling of WAVECAR
   LCHARG       =      T    write CHGCAR
   LVTOT        =      F    write LOCPOT, total local potential
   LVHAR        =      T    write LOCPOT, Hartree potential only
   LELF         =      F    write electronic localiz. function (ELF)
   LORBIT       =     11    0 simple, 1 ext, 2 COOP (PROOUT), +10 PAW based schemes


 Dipole corrections
   LMONO  =      F    monopole corrections only (constant potential shift)
   LDIPOL =      F    correct potential (dipole corrections)
   IDIPOL =      0    1-x, 2-y, 3-z, 4-all directions 
   EPSILON=  1.0000000 bulk dielectric constant

 Core level calculations are selected ICORELEVEL =  1
 Exchange correlation treatment:
   GGA     =    PE    GGA type
   LEXCH   =     8    internal setting for exchange type
   VOSKOWN=      0    Vosko Wilk Nusair interpolation
   LHFCALC =     F    Hartree Fock is set to
   LHFONE  =     F    Hartree Fock one center treatment
   AEXX    =    0.0000 exact exchange contribution

 Linear response parameters
   LEPSILON=     F    determine dielectric tensor
   LRPA    =     F    only Hartree local field effects (RPA)
   LNABLA  =     F    use nabla operator in PAW spheres
   LVEL    =     F    velocity operator in full k-point grid
   LINTERFAST=   F  fast interpolation
   KINTER  =     0    interpolate to denser k-point grid
   CSHIFT  =0.1000    complex shift for real part using Kramers Kronig
   OMEGAMAX=  -1.0    maximum frequency
   DEG_THRESHOLD= 0.2000000E-02 threshold for treating states as degnerate
   RTIME   =   -0.100 relaxation time in fs
  (WPLASMAI=    0.000 imaginary part of plasma frequency in eV, 0.658/RTIME)
   DFIELD  = 0.0000000 0.0000000 0.0000000 field for delta impulse in time
 
 Orbital magnetization related:
   ORBITALMAG=     F  switch on orbital magnetization
   LCHIMAG   =     F  perturbation theory with respect to B field
   DQ        =  0.001000  dq finite difference perturbation B field
   LLRAUG    =     F  two centre corrections for induced B field



--------------------------------------------------------------------------------------------------------


 Static calculation
 charge density and potential will be updated during run
 non-spin polarized calculation
 Variant of blocked Davidson
 Davidson routine will perform the subspace rotation
 perform sub-space diagonalisation
    after iterative eigenvector-optimisation
 modified Broyden-mixing scheme, WC =      100.0
 initial mixing is a Kerker type mixing with AMIX =  0.4000 and BMIX =      1.0000
 Hartree-type preconditioning will be used
 using additional bands           10
 reciprocal scheme for non local part
 use partial core corrections
 calculate Harris-corrections to forces 
   (improved forces if not selfconsistent)
 use gradient corrections 
 use of overlap-Matrix (Vanderbilt PP)
 Gauss-broadening in eV      SIGMA  =   0.01


--------------------------------------------------------------------------------------------------------


  energy-cutoff  :      450.00
  volume of cell :      476.80
      direct lattice vectors                 reciprocal lattice vectors
     3.342886000  0.000000000  0.000000000     0.299142717  0.000000000  0.000000000
     0.000000000 32.602409000  0.000000000     0.000000000  0.030672580  0.000000000
     0.000000000  0.000000000  4.374831000     0.000000000  0.000000000  0.228580258

  length of vectors
     3.342886000 32.602409000  4.374831000     0.299142717  0.030672580  0.228580258


 
 k-points in units of 2pi/SCALE and weight: Automatic mesh                          
   0.00000000  0.00000000  0.00000000       0.018
   0.03739284  0.00000000  0.00000000       0.036
   0.07478568  0.00000000  0.00000000       0.036
   0.11217852  0.00000000  0.00000000       0.036
   0.14957136  0.00000000  0.00000000       0.018
   0.00000000  0.00000000  0.03265432       0.036
   0.03739284  0.00000000  0.03265432       0.071
   0.07478568  0.00000000  0.03265432       0.071
   0.11217852  0.00000000  0.03265432       0.071
   0.14957136  0.00000000  0.03265432       0.036
   0.00000000  0.00000000  0.06530865       0.036
   0.03739284  0.00000000  0.06530865       0.071
   0.07478568  0.00000000  0.06530865       0.071
   0.11217852  0.00000000  0.06530865       0.071
   0.14957136  0.00000000  0.06530865       0.036
   0.00000000  0.00000000  0.09796297       0.036
   0.03739284  0.00000000  0.09796297       0.071
   0.07478568  0.00000000  0.09796297       0.071
   0.11217852  0.00000000  0.09796297       0.071
   0.14957136  0.00000000  0.09796297       0.036
 
 k-points in reciprocal lattice and weights: Automatic mesh                          
   0.00000000  0.00000000  0.00000000       0.018
   0.12500000  0.00000000  0.00000000       0.036
   0.25000000  0.00000000  0.00000000       0.036
   0.37500000  0.00000000  0.00000000       0.036
   0.50000000  0.00000000  0.00000000       0.018
   0.00000000  0.00000000  0.14285714       0.036
   0.12500000  0.00000000  0.14285714       0.071
   0.25000000  0.00000000  0.14285714       0.071
   0.37500000  0.00000000  0.14285714       0.071
   0.50000000  0.00000000  0.14285714       0.036
   0.00000000  0.00000000  0.28571429       0.036
   0.12500000  0.00000000  0.28571429       0.071
   0.25000000  0.00000000  0.28571429       0.071
   0.37500000  0.00000000  0.28571429       0.071
   0.50000000  0.00000000  0.28571429       0.036
   0.00000000  0.00000000  0.42857143       0.036
   0.12500000  0.00000000  0.42857143       0.071
   0.25000000  0.00000000  0.42857143       0.071
   0.37500000  0.00000000  0.42857143       0.071
   0.50000000  0.00000000  0.42857143       0.036
 
 position of ions in fractional coordinates (direct lattice) 
   0.00000000  0.30672600  0.91892400
   0.50000000  0.30672600  0.58107600
   0.00000000  0.37246700  0.08107600
   0.50000000  0.37246700  0.41892400
   0.50000000  0.46712900  0.41892400
   0.00000000  0.46712900  0.08107600
   0.50000000  0.53287100  0.58107600
   0.00000000  0.53287100  0.91892400
   0.00000000  0.62753300  0.91892400
   0.50000000  0.62753300  0.58107600
   0.00000000  0.69327400  0.08107600
   0.50000000  0.69327400  0.41892400
 
 position of ions in cartesian coordinates  (Angst):
   0.00000000 10.00000650  4.02013720
   1.67144300 10.00000650  2.54210930
   0.00000000 12.14332147  0.35469380
   1.67144300 12.14332147  1.83272170
   1.67144300 15.22953071  1.83272170
   0.00000000 15.22953071  0.35469380
   1.67144300 17.37287829  2.54210930
   0.00000000 17.37287829  4.02013720
   0.00000000 20.45908753  4.02013720
   1.67144300 20.45908753  2.54210930
   0.00000000 22.60240250  0.35469380
   1.67144300 22.60240250  1.83272170
 


--------------------------------------------------------------------------------------------------------


 k-point  1 :   0.0000 0.0000 0.0000  plane waves:   10373
 k-point  2 :   0.1250 0.0000 0.0000  plane waves:   10387
 k-point  3 :   0.2500 0.0000 0.0000  plane waves:   10360
 k-point  4 :   0.3750 0.0000 0.0000  plane waves:   10334
 k-point  5 :   0.5000 0.0000 0.0000  plane waves:   10356
 k-point  6 :   0.0000 0.0000 0.1429  plane waves:   10357
 k-point  7 :   0.1250 0.0000 0.1429  plane waves:   10355
 k-point  8 :   0.2500 0.0000 0.1429  plane waves:   10340
 k-point  9 :   0.3750 0.0000 0.1429  plane waves:   10337
 k-point 10 :   0.5000 0.0000 0.1429  plane waves:   10350
 k-point 11 :   0.0000 0.0000 0.2857  plane waves:   10355
 k-point 12 :   0.1250 0.0000 0.2857  plane waves:   10330
 k-point 13 :   0.2500 0.0000 0.2857  plane waves:   10307
 k-point 14 :   0.3750 0.0000 0.2857  plane waves:   10352
 k-point 15 :   0.5000 0.0000 0.2857  plane waves:   10366
 k-point 16 :   0.0000 0.0000 0.4286  plane waves:   10291
 k-point 17 :   0.1250 0.0000 0.4286  plane waves:   10278
 k-point 18 :   0.2500 0.0000 0.4286  plane waves:   10300
 k-point 19 :   0.3750 0.0000 0.4286  plane waves:   10345
 k-point 20 :   0.5000 0.0000 0.4286  plane waves:   10350

 maximum and minimum number of plane-waves per node :      1328     1261

 maximum number of plane-waves:     10387
 maximum index in each direction: 
   IXMAX=    5   IYMAX=   56   IZMAX=    7
   IXMIN=   -6   IYMIN=  -56   IZMIN=   -7


 parallel 3D FFT for wavefunctions:
    minimum data exchange during FFTs selected (reduces bandwidth)
 parallel 3D FFT for charge:
    minimum data exchange during FFTs selected (reduces bandwidth)


 total amount of memory used by VASP MPI-rank0    39791. kBytes
=======================================================================

   base      :      30000. kBytes
   nonl-proj :       1901. kBytes
   fftplans  :       1467. kBytes
   grid      :       2232. kBytes
   one-center:          6. kBytes
   wavefun   :       4185. kBytes
 
     INWAV:  cpu time    0.0000: real time    0.0000
 Broyden mixing: mesh for mixing (old mesh)
   NGX = 11   NGY =113   NGZ = 15
  (NGX  = 36   NGY  =360   NGZ  = 48)
  gives a total of  18645 points

 initial charge density was supplied:
 charge density of overlapping atoms calculated
 number of electron      60.0000000 magnetization 
 keeping initial charge density in first step


--------------------------------------------------------------------------------------------------------


 Maximum index for augmentation-charges          651 (set IRDMAX)


--------------------------------------------------------------------------------------------------------


 First call to EWALD:  gamma=   0.227
 Maximum number of real-space cells 6x 1x 5
 Maximum number of reciprocal cells 1x10x 2

    FEWALD:  cpu time    0.0018: real time    0.0018


--------------------------------------- Iteration      1(   1)  ---------------------------------------


    POTLOK:  cpu time    0.0429: real time    0.0447
    SETDIJ:  cpu time    0.0658: real time    0.0658
     EDDAV:  cpu time    0.8884: real time    0.8901
       DOS:  cpu time    0.0008: real time    0.0008
    --------------------------------------------
      LOOP:  cpu time    0.9979: real time    1.0014

 eigenvalue-minimisations  :  1600
 total energy-change (2. order) : 0.3600910E+03  (-0.2041901E+04)
 number of electron      60.0000000 magnetization 
 augmentation part       60.0000000 magnetization 

 Free energy of the ion-electron system (eV)
  ---------------------------------------------------
  alpha Z        PSCENC =        30.28014394
  Ewald energy   TEWEN  =     14984.29168251
  -Hartree energ DENC   =    -16938.86341412
  -exchange      EXHF   =         0.00000000
  -V(xc)+E(xc)   XCENC  =        40.54558770
  PAW double counting   =      1677.12035881    -1579.18296132
  entropy T*S    EENTRO =        -0.00028032
  eigenvalues    EBANDS =        33.40617585
  atomic energy  EATOM  =      2112.49373795
  Solvation  Ediel_sol  =         0.00000000
  ---------------------------------------------------
  free energy    TOTEN  =       360.09103101 eV

  energy without entropy =      360.09131132  energy(sigma->0) =      360.09117116


--------------------------------------------------------------------------------------------------------




--------------------------------------- Iteration      1(   2)  ---------------------------------------


     EDDAV:  cpu time    1.1547: real time    1.1576
       DOS:  cpu time    0.0008: real time    0.0008
    --------------------------------------------
      LOOP:  cpu time    1.1555: real time    1.1584

 eigenvalue-minimisations  :  2288
 total energy-change (2. order) :-0.3837730E+03  (-0.3724069E+03)
 number of electron      60.0000000 magnetization 
 augmentation part       60.0000000 magnetization 

 Free energy of the ion-electron system (eV)
  ---------------------------------------------------
  alpha Z        PSCENC =        30.28014394
  Ewald energy   TEWEN  =     14984.29168251
  -Hartree energ DENC   =    -16938.86341412
  -exchange      EXHF   =         0.00000000
  -V(xc)+E(xc)   XCENC  =        40.54558770
  PAW double counting   =      1677.12035881    -1579.18296132
  entropy T*S    EENTRO =        -0.00037294
  eigenvalues    EBANDS =      -350.36673276
  atomic energy  EATOM  =      2112.49373795
  Solvation  Ediel_sol  =         0.00000000
  ---------------------------------------------------
  free energy    TOTEN  =       -23.68197022 eV

  energy without entropy =      -23.68159728  energy(sigma->0) =      -23.68178375


--------------------------------------------------------------------------------------------------------




--------------------------------------- Iteration      1(   3)  ---------------------------------------


     EDDAV:  cpu time    0.9940: real time    0.9953
       DOS:  cpu time    0.0006: real time    0.0006
    --------------------------------------------
      LOOP:  cpu time    0.9945: real time    0.9959

 eigenvalue-minimisations  :  1864
 total energy-change (2. order) :-0.3904735E+02  (-0.3841853E+02)
 number of electron      60.0000000 magnetization 
 augmentation part       60.0000000 magnetization 

 Free energy of the ion-electron system (eV)
  ---------------------------------------------------
  alpha Z        PSCENC =        30.28014394
  Ewald energy   TEWEN  =     14984.29168251
  -Hartree energ DENC   =    -16938.86341412
  -exchange      EXHF   =         0.00000000
  -V(xc)+E(xc)   XCENC  =        40.54558770
  PAW double counting   =      1677.12035881    -1579.18296132
  entropy T*S    EENTRO =        -0.00000000
  eigenvalues    EBANDS =      -389.41445594
  atomic energy  EATOM  =      2112.49373795
  Solvation  Ediel_sol  =         0.00000000
  ---------------------------------------------------
  free energy    TOTEN  =       -62.72932047 eV

  energy without entropy =      -62.72932047  energy(sigma->0) =      -62.72932047


--------------------------------------------------------------------------------------------------------




--------------------------------------- Iteration      1(   4)  ---------------------------------------


     EDDAV:  cpu time    1.1865: real time    1.1894
       DOS:  cpu time    0.0005: real time    0.0005
    --------------------------------------------
      LOOP:  cpu time    1.1871: real time    1.1900

 eigenvalue-minimisations  :  2392
 total energy-change (2. order) :-0.1491197E+01  (-0.1483268E+01)
 number of electron      60.0000000 magnetization 
 augmentation part       60.0000000 magnetization 

 Free energy of the ion-electron system (eV)
  ---------------------------------------------------
  alpha Z        PSCENC =        30.28014394
  Ewald energy   TEWEN  =     14984.29168251
  -Hartree energ DENC   =    -16938.86341412
  -exchange      EXHF   =         0.00000000
  -V(xc)+E(xc)   XCENC  =        40.54558770
  PAW double counting   =      1677.12035881    -1579.18296132
  entropy T*S    EENTRO =        -0.00000000
  eigenvalues    EBANDS =      -390.90565247
  atomic energy  EATOM  =      2112.49373795
  Solvation  Ediel_sol  =         0.00000000
  ---------------------------------------------------
  free energy    TOTEN  =       -64.22051700 eV

  energy without entropy =      -64.22051700  energy(sigma->0) =      -64.22051700


--------------------------------------------------------------------------------------------------------




--------------------------------------- Iteration      1(   5)  ---------------------------------------


     EDDAV:  cpu time    1.2468: real time    1.2623
       DOS:  cpu time    0.0006: real time    0.0006
    CHARGE:  cpu time    0.0502: real time    0.0502
    MIXING:  cpu time    0.0007: real time    0.0008
    --------------------------------------------
      LOOP:  cpu time    1.2982: real time    1.3138

 eigenvalue-minimisations  :  2440
 total energy-change (2. order) :-0.3958541E-01  (-0.3954877E-01)
 number of electron      59.9999987 magnetization 
 augmentation part       -6.5370750 magnetization 

 Broyden mixing:
  rms(total) = 0.17762E+01    rms(broyden)= 0.17761E+01
  rms(prec ) = 0.17815E+01
  weight for this iteration     100.00

 Free energy of the ion-electron system (eV)
  ---------------------------------------------------
  alpha Z        PSCENC =        30.28014394
  Ewald energy   TEWEN  =     14984.29168251
  -Hartree energ DENC   =    -16938.86341412
  -exchange      EXHF   =         0.00000000
  -V(xc)+E(xc)   XCENC  =        40.54558770
  PAW double counting   =      1677.12035881    -1579.18296132
  entropy T*S    EENTRO =        -0.00000000
  eigenvalues    EBANDS =      -390.94523788
  atomic energy  EATOM  =      2112.49373795
  Solvation  Ediel_sol  =         0.00000000
  ---------------------------------------------------
  free energy    TOTEN  =       -64.26010240 eV

  energy without entropy =      -64.26010240  energy(sigma->0) =      -64.26010240


--------------------------------------------------------------------------------------------------------




--------------------------------------- Iteration      1(   6)  ---------------------------------------


    POTLOK:  cpu time    0.0191: real time    0.0205
    SETDIJ:  cpu time    0.0666: real time    0.0666
     EDDAV:  cpu time    1.0396: real time    1.0410
       DOS:  cpu time    0.0005: real time    0.0006
    CHARGE:  cpu time    0.0487: real time    0.0487
    MIXING:  cpu time    0.0007: real time    0.0007
    --------------------------------------------
      LOOP:  cpu time    1.1753: real time    1.1780

 eigenvalue-minimisations  :  2008
 total energy-change (2. order) : 0.3395893E+00  (-0.2040646E-01)
 number of electron      59.9999987 magnetization 
 augmentation part       -6.4989966 magnetization 

 Broyden mixing:
  rms(total) = 0.10536E+01    rms(broyden)= 0.10536E+01
  rms(prec ) = 0.10567E+01
  weight for this iteration     100.00

 eigenvalues of (default mixing * dielectric matrix)
  average eigenvalue GAMMA=   2.4480
  2.4480

 Free energy of the ion-electron system (eV)
  ---------------------------------------------------
  alpha Z        PSCENC =        30.28014394
  Ewald energy   TEWEN  =     14984.29168251
  -Hartree energ DENC   =    -16949.56473861
  -exchange      EXHF   =         0.00000000
  -V(xc)+E(xc)   XCENC  =        41.60606317
  PAW double counting   =      3152.54771784    -3055.07992823
  entropy T*S    EENTRO =        -0.00000000
  eigenvalues    EBANDS =      -380.49519172
  atomic energy  EATOM  =      2112.49373795
  Solvation  Ediel_sol  =         0.00000000
  ---------------------------------------------------
  free energy    TOTEN  =       -63.92051315 eV

  energy without entropy =      -63.92051315  energy(sigma->0) =      -63.92051315


--------------------------------------------------------------------------------------------------------




--------------------------------------- Iteration      1(   7)  ---------------------------------------


    POTLOK:  cpu time    0.0189: real time    0.0204
    SETDIJ:  cpu time    0.0662: real time    0.0661
     EDDAV:  cpu time    1.0167: real time    1.0181
       DOS:  cpu time    0.0005: real time    0.0005
    CHARGE:  cpu time    0.0492: real time    0.0492
    MIXING:  cpu time    0.0009: real time    0.0009
    --------------------------------------------
      LOOP:  cpu time    1.1523: real time    1.1552

 eigenvalue-minimisations  :  1960
 total energy-change (2. order) : 0.1506024E+00  (-0.3867347E-01)
 number of electron      59.9999987 magnetization 
 augmentation part       -6.4498962 magnetization 

 Broyden mixing:
  rms(total) = 0.48217E-01    rms(broyden)= 0.48216E-01
  rms(prec ) = 0.49373E-01
  weight for this iteration     100.00

 eigenvalues of (default mixing * dielectric matrix)
  average eigenvalue GAMMA=   1.8545
  1.2049  2.5041

 Free energy of the ion-electron system (eV)
  ---------------------------------------------------
  alpha Z        PSCENC =        30.28014394
  Ewald energy   TEWEN  =     14984.29168251
  -Hartree energ DENC   =    -16968.44384442
  -exchange      EXHF   =         0.00000000
  -V(xc)+E(xc)   XCENC  =        43.31758911
  PAW double counting   =      6315.91620029    -6219.02301971
  entropy T*S    EENTRO =        -0.00000000
  eigenvalues    EBANDS =      -362.60240040
  atomic energy  EATOM  =      2112.49373795
  Solvation  Ediel_sol  =         0.00000000
  ---------------------------------------------------
  free energy    TOTEN  =       -63.76991074 eV

  energy without entropy =      -63.76991074  energy(sigma->0) =      -63.76991074


--------------------------------------------------------------------------------------------------------




--------------------------------------- Iteration      1(   8)  ---------------------------------------


    POTLOK:  cpu time    0.0191: real time    0.0207
    SETDIJ:  cpu time    0.0661: real time    0.0662
     EDDAV:  cpu time    1.0674: real time    1.0688
       DOS:  cpu time    0.0006: real time    0.0006
    CHARGE:  cpu time    0.0498: real time    0.0498
    MIXING:  cpu time    0.0007: real time    0.0007
    --------------------------------------------
      LOOP:  cpu time    1.2038: real time    1.2068

 eigenvalue-minimisations  :  2024
 total energy-change (2. order) :-0.1107567E-02  (-0.2998562E-02)
 number of electron      59.9999987 magnetization 
 augmentation part       -6.4582278 magnetization 

 Broyden mixing:
  rms(total) = 0.27684E-01    rms(broyden)= 0.27684E-01
  rms(prec ) = 0.28416E-01
  weight for this iteration     100.00

 eigenvalues of (default mixing * dielectric matrix)
  average eigenvalue GAMMA=   1.5705
  2.5246  1.0935  1.0935

 Free energy of the ion-electron system (eV)
  ---------------------------------------------------
  alpha Z        PSCENC =        30.28014394
  Ewald energy   TEWEN  =     14984.29168251
  -Hartree energ DENC   =    -16969.13065326
  -exchange      EXHF   =         0.00000000
  -V(xc)+E(xc)   XCENC  =        43.34894938
  PAW double counting   =      6418.68958371    -6321.73866553
  entropy T*S    EENTRO =        -0.00000000
  eigenvalues    EBANDS =      -362.00579701
  atomic energy  EATOM  =      2112.49373795
  Solvation  Ediel_sol  =         0.00000000
  ---------------------------------------------------
  free energy    TOTEN  =       -63.77101831 eV

  energy without entropy =      -63.77101831  energy(sigma->0) =      -63.77101831


--------------------------------------------------------------------------------------------------------




--------------------------------------- Iteration      1(   9)  ---------------------------------------


    POTLOK:  cpu time    0.0191: real time    0.0207
    SETDIJ:  cpu time    0.0661: real time    0.0661
     EDDAV:  cpu time    1.2900: real time    1.2913
       DOS:  cpu time    0.0005: real time    0.0005
    CHARGE:  cpu time    0.0714: real time    0.0714
    MIXING:  cpu time    0.0007: real time    0.0007
    --------------------------------------------
      LOOP:  cpu time    1.4479: real time    1.4507

 eigenvalue-minimisations  :  2376
 total energy-change (2. order) : 0.5873772E-04  (-0.2063527E-03)
 number of electron      59.9999987 magnetization 
 augmentation part       -6.4596224 magnetization 

 Broyden mixing:
  rms(total) = 0.20390E-01    rms(broyden)= 0.20390E-01
  rms(prec ) = 0.20973E-01
  weight for this iteration     100.00

 eigenvalues of (default mixing * dielectric matrix)
  average eigenvalue GAMMA=   1.6556
  1.0008  1.9791  1.9791  1.6635

 Free energy of the ion-electron system (eV)
  ---------------------------------------------------
  alpha Z        PSCENC =        30.28014394
  Ewald energy   TEWEN  =     14984.29168251
  -Hartree energ DENC   =    -16969.93743143
  -exchange      EXHF   =         0.00000000
  -V(xc)+E(xc)   XCENC  =        43.36294626
  PAW double counting   =      6438.26014306    -6341.28907986
  entropy T*S    EENTRO =        -0.00000000
  eigenvalues    EBANDS =      -361.23310200
  atomic energy  EATOM  =      2112.49373795
  Solvation  Ediel_sol  =         0.00000000
  ---------------------------------------------------
  free energy    TOTEN  =       -63.77095957 eV

  energy without entropy =      -63.77095957  energy(sigma->0) =      -63.77095957


--------------------------------------------------------------------------------------------------------




--------------------------------------- Iteration      1(  10)  ---------------------------------------


    POTLOK:  cpu time    0.0248: real time    0.0261
    SETDIJ:  cpu time    0.0661: real time    0.0661
     EDDAV:  cpu time    1.0624: real time    1.0641
       DOS:  cpu time    0.0005: real time    0.0005
    CHARGE:  cpu time    0.0487: real time    0.0487
    MIXING:  cpu time    0.0007: real time    0.0007
    --------------------------------------------
      LOOP:  cpu time    1.2034: real time    1.2063

 eigenvalue-minimisations  :  1944
 total energy-change (2. order) : 0.1873156E-03  (-0.6985412E-04)
 number of electron      59.9999987 magnetization 
 augmentation part       -6.4611726 magnetization 

 Broyden mixing:
  rms(total) = 0.96524E-02    rms(broyden)= 0.96524E-02
  rms(prec ) = 0.10212E-01
  weight for this iteration     100.00

 eigenvalues of (default mixing * dielectric matrix)
  average eigenvalue GAMMA=   1.6673
  2.4683  2.4683  0.9819  1.2090  1.2090

 Free energy of the ion-electron system (eV)
  ---------------------------------------------------
  alpha Z        PSCENC =        30.28014394
  Ewald energy   TEWEN  =     14984.29168251
  -Hartree energ DENC   =    -16971.21345561
  -exchange      EXHF   =         0.00000000
  -V(xc)+E(xc)   XCENC  =        43.35110252
  PAW double counting   =      6368.26391428    -6271.25934296
  entropy T*S    EENTRO =        -0.00000000
  eigenvalues    EBANDS =      -359.97855489
  atomic energy  EATOM  =      2112.49373795
  Solvation  Ediel_sol  =         0.00000000
  ---------------------------------------------------
  free energy    TOTEN  =       -63.77077225 eV

  energy without entropy =      -63.77077225  energy(sigma->0) =      -63.77077225


--------------------------------------------------------------------------------------------------------




--------------------------------------- Iteration      1(  11)  ---------------------------------------


    POTLOK:  cpu time    0.0209: real time    0.0210
    SETDIJ:  cpu time    0.0662: real time    0.0662
     EDDAV:  cpu time    1.1282: real time    1.1297
       DOS:  cpu time    0.0005: real time    0.0005
    CHARGE:  cpu time    0.0769: real time    0.0769
    MIXING:  cpu time    0.0008: real time    0.0008
    --------------------------------------------
      LOOP:  cpu time    1.2935: real time    1.2951

 eigenvalue-minimisations  :  2072
 total energy-change (2. order) : 0.9412568E-04  (-0.2578088E-04)
 number of electron      59.9999987 magnetization 
 augmentation part       -6.4609819 magnetization 

 Broyden mixing:
  rms(total) = 0.38721E-02    rms(broyden)= 0.38721E-02
  rms(prec ) = 0.45077E-02
  weight for this iteration     100.00

 eigenvalues of (default mixing * dielectric matrix)
  average eigenvalue GAMMA=   1.4920
  2.4782  2.4782  1.2356  1.2356  0.9325  0.5919

 Free energy of the ion-electron system (eV)
  ---------------------------------------------------
  alpha Z        PSCENC =        30.28014394
  Ewald energy   TEWEN  =     14984.29168251
  -Hartree energ DENC   =    -16972.48976334
  -exchange      EXHF   =         0.00000000
  -V(xc)+E(xc)   XCENC  =        43.37879865
  PAW double counting   =      6398.97759811    -6301.96791473
  entropy T*S    EENTRO =        -0.00000000
  eigenvalues    EBANDS =      -358.73496122
  atomic energy  EATOM  =      2112.49373795
  Solvation  Ediel_sol  =         0.00000000
  ---------------------------------------------------
  free energy    TOTEN  =       -63.77067813 eV

  energy without entropy =      -63.77067813  energy(sigma->0) =      -63.77067813


--------------------------------------------------------------------------------------------------------




--------------------------------------- Iteration      1(  12)  ---------------------------------------


    POTLOK:  cpu time    0.0291: real time    0.0292
    SETDIJ:  cpu time    0.0676: real time    0.0676
     EDDAV:  cpu time    1.0338: real time    1.0352
       DOS:  cpu time    0.0005: real time    0.0005
    CHARGE:  cpu time    0.0535: real time    0.0536
    MIXING:  cpu time    0.0008: real time    0.0008
    --------------------------------------------
      LOOP:  cpu time    1.1853: real time    1.1869

 eigenvalue-minimisations  :  1856
 total energy-change (2. order) :-0.5749615E-04  (-0.3131254E-05)
 number of electron      59.9999987 magnetization 
 augmentation part       -6.4609121 magnetization 

 Broyden mixing:
  rms(total) = 0.18994E-02    rms(broyden)= 0.18994E-02
  rms(prec ) = 0.26842E-02
  weight for this iteration     100.00

 eigenvalues of (default mixing * dielectric matrix)
  average eigenvalue GAMMA=   1.7109
  2.8705  2.5007  1.8484  1.8484  1.0013  0.9536  0.9536

 Free energy of the ion-electron system (eV)
  ---------------------------------------------------
  alpha Z        PSCENC =        30.28014394
  Ewald energy   TEWEN  =     14984.29168251
  -Hartree energ DENC   =    -16973.06919157
  -exchange      EXHF   =         0.00000000
  -V(xc)+E(xc)   XCENC  =        43.38139324
  PAW double counting   =      6392.01931673    -6295.00923620
  entropy T*S    EENTRO =        -0.00000000
  eigenvalues    EBANDS =      -358.15858222
  atomic energy  EATOM  =      2112.49373795
  Solvation  Ediel_sol  =         0.00000000
  ---------------------------------------------------
  free energy    TOTEN  =       -63.77073562 eV

  energy without entropy =      -63.77073562  energy(sigma->0) =      -63.77073562


--------------------------------------------------------------------------------------------------------




--------------------------------------- Iteration      1(  13)  ---------------------------------------


    POTLOK:  cpu time    0.0194: real time    0.0211
    SETDIJ:  cpu time    0.0666: real time    0.0666
     EDDAV:  cpu time    1.0578: real time    1.0596
       DOS:  cpu time    0.0006: real time    0.0006
    CHARGE:  cpu time    0.0506: real time    0.0506
    MIXING:  cpu time    0.0008: real time    0.0008
    --------------------------------------------
      LOOP:  cpu time    1.1958: real time    1.1992

 eigenvalue-minimisations  :  1920
 total energy-change (2. order) :-0.1679827E-03  (-0.1213570E-04)
 number of electron      59.9999987 magnetization 
 augmentation part       -6.4605565 magnetization 

 Broyden mixing:
  rms(total) = 0.16461E-02    rms(broyden)= 0.16461E-02
  rms(prec ) = 0.19029E-02
  weight for this iteration     100.00

 eigenvalues of (default mixing * dielectric matrix)
  average eigenvalue GAMMA=   1.6995
  3.5792  2.5299  2.1411  1.4951  1.0347  1.0347  0.8905  0.8905

 Free energy of the ion-electron system (eV)
  ---------------------------------------------------
  alpha Z        PSCENC =        30.28014394
  Ewald energy   TEWEN  =     14984.29168251
  -Hartree energ DENC   =    -16974.54784483
  -exchange      EXHF   =         0.00000000
  -V(xc)+E(xc)   XCENC  =        43.39333548
  PAW double counting   =      6387.71187299    -6290.70183104
  entropy T*S    EENTRO =        -0.00000000
  eigenvalues    EBANDS =      -356.69200060
  atomic energy  EATOM  =      2112.49373795
  Solvation  Ediel_sol  =         0.00000000
  ---------------------------------------------------
  free energy    TOTEN  =       -63.77090361 eV

  energy without entropy =      -63.77090361  energy(sigma->0) =      -63.77090361


--------------------------------------------------------------------------------------------------------




--------------------------------------- Iteration      1(  14)  ---------------------------------------


    POTLOK:  cpu time    0.0212: real time    0.0214
    SETDIJ:  cpu time    0.0665: real time    0.0665
     EDDAV:  cpu time    0.9462: real time    0.9478
       DOS:  cpu time    0.0006: real time    0.0006
    CHARGE:  cpu time    0.0520: real time    0.0520
    MIXING:  cpu time    0.0009: real time    0.0009
    --------------------------------------------
      LOOP:  cpu time    1.0875: real time    1.0893

 eigenvalue-minimisations  :  1592
 total energy-change (2. order) :-0.1120737E-03  (-0.2168867E-05)
 number of electron      59.9999987 magnetization 
 augmentation part       -6.4604369 magnetization 

 Broyden mixing:
  rms(total) = 0.18808E-02    rms(broyden)= 0.18808E-02
  rms(prec ) = 0.19952E-02
  weight for this iteration     100.00

 eigenvalues of (default mixing * dielectric matrix)
  average eigenvalue GAMMA=   1.6759
  3.6778  2.3687  2.2496  1.4240  1.4240  1.1097  1.1097  0.9469  0.7731

 Free energy of the ion-electron system (eV)
  ---------------------------------------------------
  alpha Z        PSCENC =        30.28014394
  Ewald energy   TEWEN  =     14984.29168251
  -Hartree energ DENC   =    -16975.03353042
  -exchange      EXHF   =         0.00000000
  -V(xc)+E(xc)   XCENC  =        43.39547581
  PAW double counting   =      6385.68797945    -6288.67790596
  entropy T*S    EENTRO =        -0.00000000
  eigenvalues    EBANDS =      -356.20859896
  atomic energy  EATOM  =      2112.49373795
  Solvation  Ediel_sol  =         0.00000000
  ---------------------------------------------------
  free energy    TOTEN  =       -63.77101568 eV

  energy without entropy =      -63.77101568  energy(sigma->0) =      -63.77101568


--------------------------------------------------------------------------------------------------------




--------------------------------------- Iteration      1(  15)  ---------------------------------------


    POTLOK:  cpu time    0.0214: real time    0.0216
    SETDIJ:  cpu time    0.0666: real time    0.0666
     EDDAV:  cpu time    0.8539: real time    0.8553
       DOS:  cpu time    0.0005: real time    0.0005
    CHARGE:  cpu time    0.0540: real time    0.0540
    MIXING:  cpu time    0.0010: real time    0.0010
    --------------------------------------------
      LOOP:  cpu time    0.9976: real time    0.9991

 eigenvalue-minimisations  :  1368
 total energy-change (2. order) :-0.1586452E-03  (-0.8173872E-06)
 number of electron      59.9999987 magnetization 
 augmentation part       -6.4604295 magnetization 

 Broyden mixing:
  rms(total) = 0.49931E-03    rms(broyden)= 0.49931E-03
  rms(prec ) = 0.64713E-03
  weight for this iteration     100.00

 eigenvalues of (default mixing * dielectric matrix)
  average eigenvalue GAMMA=   1.9812
  5.9521  2.8469  2.5955  1.7831  1.7831  1.0911  1.0911  0.9436  0.8625  0.8625

 Free energy of the ion-electron system (eV)
  ---------------------------------------------------
  alpha Z        PSCENC =        30.28014394
  Ewald energy   TEWEN  =     14984.29168251
  -Hartree energ DENC   =    -16975.41849537
  -exchange      EXHF   =         0.00000000
  -V(xc)+E(xc)   XCENC  =        43.39660594
  PAW double counting   =      6389.18092654    -6292.17078709
  entropy T*S    EENTRO =        -0.00000000
  eigenvalues    EBANDS =      -355.82498874
  atomic energy  EATOM  =      2112.49373795
  Solvation  Ediel_sol  =         0.00000000
  ---------------------------------------------------
  free energy    TOTEN  =       -63.77117432 eV

  energy without entropy =      -63.77117432  energy(sigma->0) =      -63.77117432


--------------------------------------------------------------------------------------------------------




--------------------------------------- Iteration      1(  16)  ---------------------------------------


    POTLOK:  cpu time    0.0204: real time    0.0219
    SETDIJ:  cpu time    0.0670: real time    0.0670
     EDDAV:  cpu time    0.9132: real time    0.9146
       DOS:  cpu time    0.0005: real time    0.0005
    CHARGE:  cpu time    0.0538: real time    0.0538
    MIXING:  cpu time    0.0013: real time    0.0013
    --------------------------------------------
      LOOP:  cpu time    1.0562: real time    1.0591

 eigenvalue-minimisations  :  1480
 total energy-change (2. order) :-0.1413696E-03  (-0.1502613E-05)
 number of electron      59.9999987 magnetization 
 augmentation part       -6.4603904 magnetization 

 Broyden mixing:
  rms(total) = 0.72082E-03    rms(broyden)= 0.72082E-03
  rms(prec ) = 0.73726E-03
  weight for this iteration     100.00

 eigenvalues of (default mixing * dielectric matrix)
  average eigenvalue GAMMA=   1.9825
  6.5766  2.6928  2.6928  2.0370  1.3368  1.3368  1.4117  1.0187  1.0187  0.8429
  0.8429

 Free energy of the ion-electron system (eV)
  ---------------------------------------------------
  alpha Z        PSCENC =        30.28014394
  Ewald energy   TEWEN  =     14984.29168251
  -Hartree energ DENC   =    -16975.87612912
  -exchange      EXHF   =         0.00000000
  -V(xc)+E(xc)   XCENC  =        43.39710446
  PAW double counting   =      6390.00203847    -6292.99180121
  entropy T*S    EENTRO =        -0.00000000
  eigenvalues    EBANDS =      -355.36809269
  atomic energy  EATOM  =      2112.49373795
  Solvation  Ediel_sol  =         0.00000000
  ---------------------------------------------------
  free energy    TOTEN  =       -63.77131569 eV

  energy without entropy =      -63.77131569  energy(sigma->0) =      -63.77131569


--------------------------------------------------------------------------------------------------------




--------------------------------------- Iteration      1(  17)  ---------------------------------------


    POTLOK:  cpu time    0.0224: real time    0.0226
    SETDIJ:  cpu time    0.0662: real time    0.0662
     EDDAV:  cpu time    0.8367: real time    0.8381
       DOS:  cpu time    0.0006: real time    0.0006
    CHARGE:  cpu time    0.0525: real time    0.0525
    MIXING:  cpu time    0.0012: real time    0.0012
    --------------------------------------------
      LOOP:  cpu time    0.9795: real time    0.9810

 eigenvalue-minimisations  :  1328
 total energy-change (2. order) :-0.3566746E-04  (-0.1240223E-06)
 number of electron      59.9999987 magnetization 
 augmentation part       -6.4603987 magnetization 

 Broyden mixing:
  rms(total) = 0.24516E-03    rms(broyden)= 0.24516E-03
  rms(prec ) = 0.26501E-03
  weight for this iteration     100.00

 eigenvalues of (default mixing * dielectric matrix)
  average eigenvalue GAMMA=   2.0877
  7.4401  3.3167  2.5602  2.2048  1.6716  1.6716  1.5589  1.0295  1.0295  0.8779
  0.8456  0.8456

 Free energy of the ion-electron system (eV)
  ---------------------------------------------------
  alpha Z        PSCENC =        30.28014394
  Ewald energy   TEWEN  =     14984.29168251
  -Hartree energ DENC   =    -16975.94127823
  -exchange      EXHF   =         0.00000000
  -V(xc)+E(xc)   XCENC  =        43.39690765
  PAW double counting   =      6389.64714371    -6292.63662886
  entropy T*S    EENTRO =        -0.00000000
  eigenvalues    EBANDS =      -355.30306004
  atomic energy  EATOM  =      2112.49373795
  Solvation  Ediel_sol  =         0.00000000
  ---------------------------------------------------
  free energy    TOTEN  =       -63.77135136 eV

  energy without entropy =      -63.77135136  energy(sigma->0) =      -63.77135136


--------------------------------------------------------------------------------------------------------




--------------------------------------- Iteration      1(  18)  ---------------------------------------


    POTLOK:  cpu time    0.0212: real time    0.0214
    SETDIJ:  cpu time    0.0666: real time    0.0666
     EDDAV:  cpu time    0.8407: real time    0.8421
       DOS:  cpu time    0.0005: real time    0.0005
    CHARGE:  cpu time    0.0553: real time    0.0553
    MIXING:  cpu time    0.0011: real time    0.0011
    --------------------------------------------
      LOOP:  cpu time    0.9855: real time    0.9870

 eigenvalue-minimisations  :  1344
 total energy-change (2. order) :-0.3527908E-04  (-0.9178718E-07)
 number of electron      59.9999987 magnetization 
 augmentation part       -6.4604079 magnetization 

 Broyden mixing:
  rms(total) = 0.15493E-03    rms(broyden)= 0.15493E-03
  rms(prec ) = 0.16284E-03
  weight for this iteration     100.00

 eigenvalues of (default mixing * dielectric matrix)
  average eigenvalue GAMMA=   2.0564
  7.6407  3.3794  2.4715  2.4715  1.6326  1.6326  1.3652  1.3652  1.0534  1.0534
  0.9459  0.8609  0.8609

 Free energy of the ion-electron system (eV)
  ---------------------------------------------------
  alpha Z        PSCENC =        30.28014394
  Ewald energy   TEWEN  =     14984.29168251
  -Hartree energ DENC   =    -16975.98231776
  -exchange      EXHF   =         0.00000000
  -V(xc)+E(xc)   XCENC  =        43.39659778
  PAW double counting   =      6389.49395351    -6292.48341524
  entropy T*S    EENTRO =        -0.00000000
  eigenvalues    EBANDS =      -355.26176933
  atomic energy  EATOM  =      2112.49373795
  Solvation  Ediel_sol  =         0.00000000
  ---------------------------------------------------
  free energy    TOTEN  =       -63.77138664 eV

  energy without entropy =      -63.77138664  energy(sigma->0) =      -63.77138664


--------------------------------------------------------------------------------------------------------




--------------------------------------- Iteration      1(  19)  ---------------------------------------


    POTLOK:  cpu time    0.0200: real time    0.0215
    SETDIJ:  cpu time    0.0661: real time    0.0663
     EDDAV:  cpu time    0.7764: real time    0.7775
       DOS:  cpu time    0.0005: real time    0.0005
    --------------------------------------------
      LOOP:  cpu time    0.9475: real time    0.9503

 eigenvalue-minimisations  :  1184
 total energy-change (2. order) :-0.9960759E-05  (-0.1564267E-07)
 number of electron      59.9999987 magnetization 
 augmentation part       -6.4604079 magnetization 

 Free energy of the ion-electron system (eV)
  ---------------------------------------------------
  alpha Z        PSCENC =        30.28014394
  Ewald energy   TEWEN  =     14984.29168251
  -Hartree energ DENC   =    -16975.98752375
  -exchange      EXHF   =         0.00000000
  -V(xc)+E(xc)   XCENC  =        43.39652374
  PAW double counting   =      6389.17899591    -6292.16847032
  entropy T*S    EENTRO =        -0.00000000
  eigenvalues    EBANDS =      -355.25648658
  atomic energy  EATOM  =      2112.49373795
  Solvation  Ediel_sol  =         0.00000000
  ---------------------------------------------------
  free energy    TOTEN  =       -63.77139660 eV

  energy without entropy =      -63.77139660  energy(sigma->0) =      -63.77139660


--------------------------------------------------------------------------------------------------------




 the core state eigenenergies are
   1-  1s  -2078.4016  2s   -168.4299  2p   -118.9157
   2-  1s  -2078.4016  2s   -168.4299  2p   -118.9157
   3-  1s  -2078.4733  2s   -168.5085  2p   -118.9939
   4-  1s  -2078.4733  2s   -168.5085  2p   -118.9939
   5-  1s  -2078.4966  2s   -168.5336  2p   -119.0190
   6-  1s  -2078.4966  2s   -168.5336  2p   -119.0190
   7-  1s  -2078.4966  2s   -168.5336  2p   -119.0190
   8-  1s  -2078.4966  2s   -168.5336  2p   -119.0190
   9-  1s  -2078.4733  2s   -168.5085  2p   -118.9939
  10-  1s  -2078.4733  2s   -168.5085  2p   -118.9939
  11-  1s  -2078.4016  2s   -168.4299  2p   -118.9157
  12-  1s  -2078.4016  2s   -168.4299  2p   -118.9157
 
 E-fermi :   0.6951     XC(G=0):  -5.0954     alpha+bet : -5.5572


 k-point     1 :       0.0000    0.0000    0.0000
  band No.  band energies     occupation 
      1     -14.9507      2.00000
      2     -14.7783      2.00000
      3     -14.6805      2.00000
      4     -12.5598      2.00000
      5     -12.1861      2.00000
      6     -11.9302      2.00000
      7      -8.6786      2.00000
      8      -8.5530      2.00000
      9      -8.4949      2.00000
     10      -6.2974      2.00000
     11      -5.6065      2.00000
     12      -4.8693      2.00000
     13      -4.7797      2.00000
     14      -4.5969      2.00000
     15      -4.2771      2.00000
     16      -4.2129      2.00000
     17      -3.9834      2.00000
     18      -3.8174      2.00000
     19      -3.4845      2.00000
     20      -3.3361      2.00000
     21      -3.2630      2.00000
     22      -2.0653      2.00000
     23      -1.8590      2.00000
     24      -1.6313      2.00000
     25      -1.5240      2.00000
     26      -1.5150      2.00000
     27      -0.8947      2.00000
     28      -0.5858      2.00000
     29       0.1398      2.00000
     30       0.3212      2.00000
     31       1.0482      0.00000
     32       1.3363      0.00000
     33       1.3472      0.00000
     34       1.5975      0.00000
     35       2.0103      0.00000
     36       2.5529      0.00000
     37       2.5996      0.00000
     38       2.8834      0.00000
     39       3.0386      0.00000
     40       3.6341      0.00000

 k-point     2 :       0.1250    0.0000    0.0000
  band No.  band energies     occupation 
      1     -14.7685      2.00000
      2     -14.5967      2.00000
      3     -14.4993      2.00000
      4     -12.3711      2.00000
      5     -11.9975      2.00000
      6     -11.7416      2.00000
      7      -8.8435      2.00000
      8      -8.7158      2.00000
      9      -8.6566      2.00000
     10      -6.1422      2.00000
     11      -5.4568      2.00000
     12      -5.0831      2.00000
     13      -4.7347      2.00000
     14      -4.6082      2.00000
     15      -4.4403      2.00000
     16      -4.2441      2.00000
     17      -4.1869      2.00000
     18      -4.0872      2.00000
     19      -4.0623      2.00000
     20      -4.0070      2.00000
     21      -3.8268      2.00000
     22      -2.5811      2.00000
     23      -2.3212      2.00000
     24      -2.1474      2.00000
     25      -1.9802      2.00000
     26      -1.4408      2.00000
     27      -0.8111      2.00000
     28      -0.7058      2.00000
     29       0.2265      2.00000
     30       0.3130      2.00000
     31       1.0983      0.00000
     32       1.4988      0.00000
     33       2.7002      0.00000
     34       2.7038      0.00000
     35       2.7337      0.00000
     36       2.9423      0.00000
     37       2.9464      0.00000
     38       2.9764      0.00000
     39       3.2052      0.00000
     40       3.7442      0.00000

 k-point     3 :       0.2500    0.0000    0.0000
  band No.  band energies     occupation 
      1     -14.2271      2.00000
      2     -14.0569      2.00000
      3     -13.9613      2.00000
      4     -11.8080      2.00000
      5     -11.4345      2.00000
      6     -11.1783      2.00000
      7      -9.5469      2.00000
      8      -9.4085      2.00000
      9      -9.3416      2.00000
     10      -6.3488      2.00000
     11      -5.9422      2.00000
     12      -5.6969      2.00000
     13      -5.6257      2.00000
     14      -5.0359      2.00000
     15      -5.0084      2.00000
     16      -4.8458      2.00000
     17      -4.7662      2.00000
     18      -4.3773      2.00000
     19      -3.9955      2.00000
     20      -3.6384      2.00000
     21      -3.3798      2.00000
     22      -2.9491      2.00000
     23      -2.6325      2.00000
     24      -2.3284      2.00000
     25      -1.8781      2.00000
     26      -1.3491      2.00000
     27      -1.1561      2.00000
     28      -0.7324      2.00000
     29      -0.2344      2.00000
     30       0.6526      2.00000
     31       0.8218      0.00000
     32       1.3711      0.00000
     33       1.6383      0.00000
     34       1.8152      0.00000
     35       2.0277      0.00000
     36       3.1883      0.00000
     37       3.2237      0.00000
     38       3.4930      0.00000
     39       3.5616      0.00000
     40       3.7459      0.00000

 k-point     4 :       0.3750    0.0000    0.0000
  band No.  band energies     occupation 
      1     -13.3451      2.00000
      2     -13.1780      2.00000
      3     -13.0856      2.00000
      4     -10.8801      2.00000
      5     -10.8045      2.00000
      6     -10.6521      2.00000
      7     -10.5735      2.00000
      8     -10.5066      2.00000
      9     -10.2491      2.00000
     10      -8.0462      2.00000
     11      -7.6641      2.00000
     12      -7.3905      2.00000
     13      -5.0628      2.00000
     14      -4.9493      2.00000
     15      -4.7730      2.00000
     16      -4.6863      2.00000
     17      -4.4920      2.00000
     18      -4.0284      2.00000
     19      -3.3836      2.00000
     20      -3.0844      2.00000
     21      -2.7663      2.00000
     22      -2.7476      2.00000
     23      -2.5478      2.00000
     24      -2.1693      2.00000
     25      -2.0929      2.00000
     26      -1.8193      2.00000
     27      -1.6183      2.00000
     28      -1.0125      2.00000
     29      -0.9996      2.00000
     30      -0.1677      2.00000
     31       1.0871      0.00000
     32       1.4078      0.00000
     33       1.5680      0.00000
     34       1.7042      0.00000
     35       1.7127      0.00000
     36       2.0806      0.00000
     37       2.2174      0.00000
     38       2.3647      0.00000
     39       2.3972      0.00000
     40       2.7386      0.00000

 k-point     5 :       0.5000    0.0000    0.0000
  band No.  band energies     occupation 
      1     -12.1671      2.00000
      2     -12.1671      2.00000
      3     -12.0054      2.00000
      4     -12.0054      2.00000
      5     -11.9182      2.00000
      6     -11.9182      2.00000
      7      -9.6091      2.00000
      8      -9.6091      2.00000
      9      -9.2340      2.00000
     10      -9.2340      2.00000
     11      -8.9726      2.00000
     12      -8.9726      2.00000
     13      -4.6682      2.00000
     14      -4.6682      2.00000
     15      -4.3616      2.00000
     16      -4.3616      2.00000
     17      -4.1944      2.00000
     18      -4.1944      2.00000
     19      -2.8888      2.00000
     20      -2.8888      2.00000
     21      -2.8673      2.00000
     22      -2.8673      2.00000
     23      -2.2100      2.00000
     24      -2.2100      2.00000
     25      -2.1699      2.00000
     26      -2.1699      2.00000
     27      -1.5895      2.00000
     28      -1.5895      2.00000
     29      -0.9090      2.00000
     30      -0.9090      2.00000
     31       1.2311      0.00000
     32       1.2311      0.00000
     33       1.6124      0.00000
     34       1.6124      0.00000
     35       1.9300      0.00000
     36       1.9300      0.00000
     37       1.9808      0.00000
     38       1.9808      0.00000
     39       2.2770      0.00000
     40       2.2770      0.00000

 k-point     6 :       0.0000    0.0000    0.1429
  band No.  band energies     occupation 
      1     -14.8397      2.00000
      2     -14.6661      2.00000
      3     -14.5660      2.00000
      4     -12.6300      2.00000
      5     -12.2820      2.00000
      6     -12.0548      2.00000
      7      -8.9113      2.00000
      8      -8.7364      2.00000
      9      -8.6212      2.00000
     10      -6.5973      2.00000
     11      -6.0112      2.00000
     12      -5.5012      2.00000
     13      -4.9421      2.00000
     14      -4.4129      2.00000
     15      -3.9374      2.00000
     16      -3.8380      2.00000
     17      -3.4554      2.00000
     18      -3.3968      2.00000
     19      -3.3339      2.00000
     20      -3.2477      2.00000
     21      -3.1728      2.00000
     22      -1.9016      2.00000
     23      -1.6819      2.00000
     24      -1.5734      2.00000
     25      -1.4682      2.00000
     26      -1.4482      2.00000
     27      -0.8514      2.00000
     28      -0.5927      2.00000
     29      -0.1219      2.00000
     30       0.5732      2.00000
     31       0.7602      0.00000
     32       1.5116      0.00000
     33       1.6760      0.00000
     34       1.9119      0.00000
     35       1.9920      0.00000
     36       2.3959      0.00000
     37       2.6143      0.00000
     38       2.8205      0.00000
     39       3.2532      0.00000
     40       3.4213      0.00000

 k-point     7 :       0.1250    0.0000    0.1429
  band No.  band energies     occupation 
      1     -14.6583      2.00000
      2     -14.4852      2.00000
      3     -14.3857      2.00000
      4     -12.4450      2.00000
      5     -12.0983      2.00000
      6     -11.8723      2.00000
      7      -8.9981      2.00000
      8      -8.8258      2.00000
      9      -8.7154      2.00000
     10      -6.5036      2.00000
     11      -5.9449      2.00000
     12      -5.4629      2.00000
     13      -5.0429      2.00000
     14      -4.7140      2.00000
     15      -4.4303      2.00000
     16      -4.3784      2.00000
     17      -4.2356      2.00000
     18      -3.6824      2.00000
     19      -3.4650      2.00000
     20      -3.1754      2.00000
     21      -3.0213      2.00000
     22      -2.8492      2.00000
     23      -2.5522      2.00000
     24      -2.3372      2.00000
     25      -1.4444      2.00000
     26      -1.4315      2.00000
     27      -0.8454      2.00000
     28      -0.5879      2.00000
     29      -0.1400      2.00000
     30       0.6000      2.00000
     31       0.8531      0.00000
     32       1.9735      0.00000
     33       2.5233      0.00000
     34       2.7119      0.00000
     35       2.8388      0.00000
     36       2.8727      0.00000
     37       3.0357      0.00000
     38       3.2087      0.00000
     39       3.3109      0.00000
     40       3.7307      0.00000

 k-point     8 :       0.2500    0.0000    0.1429
  band No.  band energies     occupation 
      1     -14.1198      2.00000
      2     -13.9485      2.00000
      3     -13.8509      2.00000
      4     -11.9002      2.00000
      5     -11.5602      2.00000
      6     -11.3412      2.00000
      7      -9.5096      2.00000
      8      -9.3362      2.00000
      9      -9.2295      2.00000
     10      -6.7059      2.00000
     11      -6.2874      2.00000
     12      -5.9531      2.00000
     13      -5.4930      2.00000
     14      -5.4815      2.00000
     15      -5.2507      2.00000
     16      -5.1441      2.00000
     17      -4.8072      2.00000
     18      -4.2782      2.00000
     19      -3.4006      2.00000
     20      -3.2806      2.00000
     21      -2.9532      2.00000
     22      -2.9416      2.00000
     23      -2.6582      2.00000
     24      -2.5305      2.00000
     25      -1.7816      2.00000
     26      -1.6145      2.00000
     27      -1.1635      2.00000
     28      -0.8288      2.00000
     29      -0.4078      2.00000
     30       0.4045      2.00000
     31       1.1064      0.00000
     32       1.7228      0.00000
     33       2.0172      0.00000
     34       2.1836      0.00000
     35       2.3035      0.00000
     36       2.7588      0.00000
     37       3.1087      0.00000
     38       3.3824      0.00000
     39       3.4312      0.00000
     40       3.8530      0.00000

 k-point     9 :       0.3750    0.0000    0.1429
  band No.  band energies     occupation 
      1     -13.2461      2.00000
      2     -13.0782      2.00000
      3     -12.9841      2.00000
      4     -11.1710      2.00000
      5     -10.9314      2.00000
      6     -10.8082      2.00000
      7     -10.4730      2.00000
      8     -10.1967      2.00000
      9      -9.9945      2.00000
     10      -8.1259      2.00000
     11      -7.7562      2.00000
     12      -7.4957      2.00000
     13      -5.4175      2.00000
     14      -5.2384      2.00000
     15      -5.0559      2.00000
     16      -5.0264      2.00000
     17      -4.5064      2.00000
     18      -4.0981      2.00000
     19      -3.2892      2.00000
     20      -3.1548      2.00000
     21      -2.9694      2.00000
     22      -2.8375      2.00000
     23      -2.6639      2.00000
     24      -2.4456      2.00000
     25      -2.2609      2.00000
     26      -1.8397      2.00000
     27      -1.5805      2.00000
     28      -1.0335      2.00000
     29      -0.8470      2.00000
     30      -0.0905      2.00000
     31       1.3851      0.00000
     32       1.7782      0.00000
     33       1.7932      0.00000
     34       1.9233      0.00000
     35       2.1796      0.00000
     36       2.2341      0.00000
     37       2.3088      0.00000
     38       2.4130      0.00000
     39       2.7223      0.00000
     40       2.7658      0.00000

 k-point    10 :       0.5000    0.0000    0.1429
  band No.  band energies     occupation 
      1     -12.0975      2.00000
      2     -12.0975      2.00000
      3     -11.9355      2.00000
      4     -11.9355      2.00000
      5     -11.8478      2.00000
      6     -11.8478      2.00000
      7      -9.6259      2.00000
      8      -9.6259      2.00000
      9      -9.2624      2.00000
     10      -9.2624      2.00000
     11      -9.0144      2.00000
     12      -9.0144      2.00000
     13      -4.8684      2.00000
     14      -4.8684      2.00000
     15      -4.5877      2.00000
     16      -4.5877      2.00000
     17      -4.4078      2.00000
     18      -4.4078      2.00000
     19      -3.5108      2.00000
     20      -3.5108      2.00000
     21      -3.0765      2.00000
     22      -3.0765      2.00000
     23      -2.6097      2.00000
     24      -2.6097      2.00000
     25      -1.9980      2.00000
     26      -1.9980      2.00000
     27      -1.2949      2.00000
     28      -1.2949      2.00000
     29      -0.5453      2.00000
     30      -0.5453      2.00000
     31       1.1800      0.00000
     32       1.1800      0.00000
     33       1.5747      0.00000
     34       1.5747      0.00000
     35       1.8886      0.00000
     36       1.8886      0.00000
     37       2.6038      0.00000
     38       2.6038      0.00000
     39       3.1319      0.00000
     40       3.1725      0.00000

 k-point    11 :       0.0000    0.0000    0.2857
  band No.  band energies     occupation 
      1     -14.5186      2.00000
      2     -14.3409      2.00000
      3     -14.2318      2.00000
      4     -12.9011      2.00000
      5     -12.6186      2.00000
      6     -12.4569      2.00000
      7      -9.1544      2.00000
      8      -8.8818      2.00000
      9      -8.6628      2.00000
     10      -7.4405      2.00000
     11      -6.9779      2.00000
     12      -6.5887      2.00000
     13      -4.7492      2.00000
     14      -3.9366      2.00000
     15      -3.1490      2.00000
     16      -3.0427      2.00000
     17      -2.9982      2.00000
     18      -2.9154      2.00000
     19      -2.8503      2.00000
     20      -2.4524      2.00000
     21      -2.4250      2.00000
     22      -2.3677      2.00000
     23      -2.0562      2.00000
     24      -1.8586      2.00000
     25      -1.7708      2.00000
     26      -1.5238      2.00000
     27      -0.5103      2.00000
     28      -0.3162      2.00000
     29       0.2275      2.00000
     30       0.5060      2.00000
     31       1.2777      0.00000
     32       1.6108      0.00000
     33       2.0556      0.00000
     34       2.1611      0.00000
     35       2.2226      0.00000
     36       2.3277      0.00000
     37       2.3571      0.00000
     38       2.8792      0.00000
     39       3.1225      0.00000
     40       3.3074      0.00000

 k-point    12 :       0.1250    0.0000    0.2857
  band No.  band energies     occupation 
      1     -14.3394      2.00000
      2     -14.1624      2.00000
      3     -14.0540      2.00000
      4     -12.7244      2.00000
      5     -12.4443      2.00000
      6     -12.2845      2.00000
      7      -9.1375      2.00000
      8      -8.8694      2.00000
      9      -8.6582      2.00000
     10      -7.3634      2.00000
     11      -6.9095      2.00000
     12      -6.5299      2.00000
     13      -4.7225      2.00000
     14      -4.5406      2.00000
     15      -4.3025      2.00000
     16      -4.2034      2.00000
     17      -3.8548      2.00000
     18      -3.1922      2.00000
     19      -3.1139      2.00000
     20      -2.9113      2.00000
     21      -2.6493      2.00000
     22      -2.3642      2.00000
     23      -2.2923      2.00000
     24      -1.9808      2.00000
     25      -1.8396      2.00000
     26      -1.4975      2.00000
     27      -0.6585      2.00000
     28      -0.5825      2.00000
     29      -0.0169      2.00000
     30       0.1183      2.00000
     31       1.6211      0.00000
     32       2.5640      0.00000
     33       2.8208      0.00000
     34       2.8783      0.00000
     35       3.0626      0.00000
     36       3.1901      0.00000
     37       3.2670      0.00000
     38       3.3138      0.00000
     39       3.4110      0.00000
     40       3.5781      0.00000

 k-point    13 :       0.2500    0.0000    0.2857
  band No.  band energies     occupation 
      1     -13.8099      2.00000
      2     -13.6350      2.00000
      3     -13.5291      2.00000
      4     -12.2135      2.00000
      5     -11.9445      2.00000
      6     -11.7938      2.00000
      7      -9.3207      2.00000
      8      -9.0672      2.00000
      9      -8.8819      2.00000
     10      -7.4128      2.00000
     11      -7.0120      2.00000
     12      -6.6952      2.00000
     13      -5.7891      2.00000
     14      -5.5633      2.00000
     15      -5.3923      2.00000
     16      -5.1674      2.00000
     17      -4.6949      2.00000
     18      -4.3816      2.00000
     19      -3.8644      2.00000
     20      -3.3157      2.00000
     21      -2.7178      2.00000
     22      -2.4511      2.00000
     23      -2.0758      2.00000
     24      -2.0697      2.00000
     25      -1.9110      2.00000
     26      -1.7914      2.00000
     27      -1.2484      2.00000
     28      -1.1327      2.00000
     29      -0.5786      2.00000
     30      -0.0221      2.00000
     31       1.7653      0.00000
     32       2.1036      0.00000
     33       2.4147      0.00000
     34       2.7025      0.00000
     35       2.7964      0.00000
     36       2.9178      0.00000
     37       3.2078      0.00000
     38       3.4502      0.00000
     39       3.9860      0.00000
     40       4.0396      0.00000

 k-point    14 :       0.3750    0.0000    0.2857
  band No.  band energies     occupation 
      1     -12.9624      2.00000
      2     -12.7921      2.00000
      3     -12.6914      2.00000
      4     -11.5427      2.00000
      5     -11.3259      2.00000
      6     -11.2135      2.00000
      7     -10.0162      2.00000
      8      -9.7360      2.00000
      9      -9.5429      2.00000
     10      -8.4000      2.00000
     11      -8.0617      2.00000
     12      -7.8329      2.00000
     13      -5.9151      2.00000
     14      -5.6596      2.00000
     15      -5.4484      2.00000
     16      -5.1835      2.00000
     17      -4.7216      2.00000
     18      -4.3760      2.00000
     19      -4.0190      2.00000
     20      -3.7215      2.00000
     21      -3.3835      2.00000
     22      -3.1869      2.00000
     23      -2.8525      2.00000
     24      -2.4440      2.00000
     25      -2.4338      2.00000
     26      -1.8894      2.00000
     27      -1.4541      2.00000
     28      -1.0017      2.00000
     29      -0.6354      2.00000
     30       0.0931      2.00000
     31       1.4158      0.00000
     32       2.0105      0.00000
     33       2.0760      0.00000
     34       2.3340      0.00000
     35       2.6858      0.00000
     36       3.0788      0.00000
     37       3.4705      0.00000
     38       3.6264      0.00000
     39       3.7345      0.00000
     40       3.8398      0.00000

 k-point    15 :       0.5000    0.0000    0.2857
  band No.  band energies     occupation 
      1     -11.9218      2.00000
      2     -11.9218      2.00000
      3     -11.7591      2.00000
      4     -11.7591      2.00000
      5     -11.6694      2.00000
      6     -11.6694      2.00000
      7      -9.6958      2.00000
      8      -9.6958      2.00000
      9      -9.3626      2.00000
     10      -9.3626      2.00000
     11      -9.1478      2.00000
     12      -9.1478      2.00000
     13      -5.1949      2.00000
     14      -5.1949      2.00000
     15      -4.9063      2.00000
     16      -4.9063      2.00000
     17      -4.6783      2.00000
     18      -4.6783      2.00000
     19      -4.1808      2.00000
     20      -4.1808      2.00000
     21      -3.7505      2.00000
     22      -3.7505      2.00000
     23      -3.3634      2.00000
     24      -3.3634      2.00000
     25      -1.9938      2.00000
     26      -1.9938      2.00000
     27      -1.1638      2.00000
     28      -1.1638      2.00000
     29      -0.2910      2.00000
     30      -0.2910      2.00000
     31       1.7910      0.00000
     32       1.7910      0.00000
     33       2.4611      0.00000
     34       2.4611      0.00000
     35       2.8569      0.00000
     36       2.8569      0.00000
     37       2.9306      0.00000
     38       2.9306      0.00000
     39       3.4417      0.00000
     40       3.4417      0.00000

 k-point    16 :       0.0000    0.0000    0.4286
  band No.  band energies     occupation 
      1     -14.0360      2.00000
      2     -13.8664      2.00000
      3     -13.7105      2.00000
      4     -13.3703      2.00000
      5     -13.1660      2.00000
      6     -13.0687      2.00000
      7      -8.9590      2.00000
      8      -8.6052      2.00000
      9      -8.3286      2.00000
     10      -8.3079      2.00000
     11      -7.9203      2.00000
     12      -7.5783      2.00000
     13      -4.1922      2.00000
     14      -3.4043      2.00000
     15      -3.2826      2.00000
     16      -2.7977      2.00000
     17      -2.6639      2.00000
     18      -2.5353      2.00000
     19      -2.4801      2.00000
     20      -2.3321      2.00000
     21      -2.3210      2.00000
     22      -2.1710      2.00000
     23      -2.1160      2.00000
     24      -1.6500      2.00000
     25      -1.5407      2.00000
     26      -1.2185      2.00000
     27      -0.8369      2.00000
     28      -0.3686      2.00000
     29       0.0444      2.00000
     30       0.2589      2.00000
     31       1.5720      0.00000
     32       1.5906      0.00000
     33       2.1878      0.00000
     34       2.3375      0.00000
     35       2.4516      0.00000
     36       2.6209      0.00000
     37       3.0131      0.00000
     38       3.1512      0.00000
     39       3.3551      0.00000
     40       3.5351      0.00000

 k-point    17 :       0.1250    0.0000    0.4286
  band No.  band energies     occupation 
      1     -13.8600      2.00000
      2     -13.6910      2.00000
      3     -13.5366      2.00000
      4     -13.1977      2.00000
      5     -12.9948      2.00000
      6     -12.8985      2.00000
      7      -8.8883      2.00000
      8      -8.5387      2.00000
      9      -8.2499      2.00000
     10      -8.2449      2.00000
     11      -7.8415      2.00000
     12      -7.5068      2.00000
     13      -4.1525      2.00000
     14      -4.1444      2.00000
     15      -3.9657      2.00000
     16      -3.8210      2.00000
     17      -3.5389      2.00000
     18      -3.5004      2.00000
     19      -3.3331      2.00000
     20      -3.2721      2.00000
     21      -3.1056      2.00000
     22      -2.4013      2.00000
     23      -2.2415      2.00000
     24      -1.5416      2.00000
     25      -1.2450      2.00000
     26      -0.9831      2.00000
     27      -0.5783      2.00000
     28      -0.5465      2.00000
     29      -0.0227      2.00000
     30       0.1620      2.00000
     31       2.2884      0.00000
     32       2.6168      0.00000
     33       2.6867      0.00000
     34       2.8443      0.00000
     35       3.0090      0.00000
     36       3.0745      0.00000
     37       3.1685      0.00000
     38       3.1911      0.00000
     39       3.6625      0.00000
     40       3.7839      0.00000

 k-point    18 :       0.2500    0.0000    0.4286
  band No.  band energies     occupation 
      1     -13.3434      2.00000
      2     -13.1768      2.00000
      3     -13.0280      2.00000
      4     -12.6979      2.00000
      5     -12.5009      2.00000
      6     -12.4080      2.00000
      7      -8.8766      2.00000
      8      -8.5530      2.00000
      9      -8.3046      2.00000
     10      -8.1989      2.00000
     11      -7.8299      2.00000
     12      -7.5426      2.00000
     13      -5.6656      2.00000
     14      -5.4451      2.00000
     15      -5.2750      2.00000
     16      -5.2416      2.00000
     17      -5.0053      2.00000
     18      -4.8160      2.00000
     19      -3.7421      2.00000
     20      -3.2154      2.00000
     21      -2.9045      2.00000
     22      -2.4988      2.00000
     23      -2.2233      2.00000
     24      -1.9221      2.00000
     25      -1.8617      2.00000
     26      -1.8195      2.00000
     27      -1.2021      2.00000
     28      -1.1448      2.00000
     29      -0.4855      2.00000
     30      -0.2634      2.00000
     31       2.2765      0.00000
     32       2.7893      0.00000
     33       2.8067      0.00000
     34       3.0893      0.00000
     35       3.1209      0.00000
     36       3.4931      0.00000
     37       3.7813      0.00000
     38       3.8555      0.00000
     39       4.0366      0.00000
     40       4.3873      0.00000

 k-point    19 :       0.3750    0.0000    0.4286
  band No.  band energies     occupation 
      1     -12.5424      2.00000
      2     -12.3821      2.00000
      3     -12.2463      2.00000
      4     -11.9801      2.00000
      5     -11.8025      2.00000
      6     -11.7180      2.00000
      7      -9.4686      2.00000
      8      -9.1909      2.00000
      9      -8.9825      2.00000
     10      -8.8654      2.00000
     11      -8.5683      2.00000
     12      -8.3715      2.00000
     13      -5.9708      2.00000
     14      -5.6688      2.00000
     15      -5.6112      2.00000
     16      -5.4172      2.00000
     17      -5.2519      2.00000
     18      -4.9650      2.00000
     19      -4.1201      2.00000
     20      -3.8464      2.00000
     21      -3.5546      2.00000
     22      -3.4038      2.00000
     23      -3.2105      2.00000
     24      -2.9081      2.00000
     25      -2.3633      2.00000
     26      -2.0422      2.00000
     27      -1.4118      2.00000
     28      -1.1041      2.00000
     29      -0.5193      2.00000
     30      -0.1505      2.00000
     31       1.8409      0.00000
     32       2.3949      0.00000
     33       2.8086      0.00000
     34       3.1252      0.00000
     35       3.4952      0.00000
     36       3.5957      0.00000
     37       3.6673      0.00000
     38       4.1202      0.00000
     39       4.3725      0.00000
     40       4.5082      0.00000

 k-point    20 :       0.5000    0.0000    0.4286
  band No.  band energies     occupation 
      1     -11.7529      2.00000
      2     -11.7529      2.00000
      3     -11.5895      2.00000
      4     -11.5895      2.00000
      5     -11.4977      2.00000
      6     -11.4977      2.00000
      7      -9.7963      2.00000
      8      -9.7963      2.00000
      9      -9.4911      2.00000
     10      -9.4911      2.00000
     11      -9.3052      2.00000
     12      -9.3052      2.00000
     13      -5.2125      2.00000
     14      -5.2125      2.00000
     15      -4.9128      2.00000
     16      -4.9128      2.00000
     17      -4.7762      2.00000
     18      -4.7762      2.00000
     19      -4.6007      2.00000
     20      -4.6007      2.00000
     21      -4.4180      2.00000
     22      -4.4180      2.00000
     23      -4.0966      2.00000
     24      -4.0966      2.00000
     25      -2.0058      2.00000
     26      -2.0058      2.00000
     27      -1.1171      2.00000
     28      -1.1171      2.00000
     29      -0.2004      2.00000
     30      -0.2004      2.00000
     31       1.7155      0.00000
     32       1.7155      0.00000
     33       2.7034      0.00000
     34       2.7034      0.00000
     35       3.7472      0.00000
     36       3.7472      0.00000
     37       4.2670      0.00000
     38       4.2670      0.00000
     39       4.4884      0.00000
     40       4.4917      0.00000


--------------------------------------------------------------------------------------------------------


 soft charge-density along one line, spin component           1
         0         1         2         3         4         5         6         7         8         9
 total charge-density along one line
 
 pseudopotential strength for first ion, spin component:           1
 29.687  37.033   0.035  -0.032   0.000   0.055  -0.051  -0.000
 37.033  46.201   0.044  -0.041  -0.000   0.068  -0.063   0.000
  0.035   0.044   6.554   0.006  -0.000  10.136   0.009  -0.000
 -0.032  -0.041   0.006   6.557   0.000   0.009  10.141   0.000
  0.000  -0.000  -0.000   0.000   6.562  -0.000   0.000  10.148
  0.055   0.068  10.136   0.009  -0.000  15.693   0.014  -0.000
 -0.051  -0.063   0.009  10.141   0.000   0.014  15.701   0.000
 -0.000   0.000  -0.000   0.000  10.148  -0.000   0.000  15.711
 total augmentation occupancy for first ion, spin component:           1
  8.291  -4.731   1.846  -1.943   0.000  -0.597   0.649   0.000
 -4.731   3.442  -1.583   1.648   0.000   0.442  -0.476  -0.000
  1.846  -1.583   3.117   0.199   0.000  -0.823  -0.162   0.000
 -1.943   1.648   0.199   3.275   0.000  -0.160  -0.925   0.000
  0.000   0.000   0.000   0.000   3.402   0.000   0.000  -1.028
 -0.597   0.442  -0.823  -0.160   0.000   0.261   0.070   0.000
  0.649  -0.476  -0.162  -0.925   0.000   0.070   0.299   0.000
  0.000  -0.000   0.000   0.000  -1.028   0.000   0.000   0.340


------------------------ aborting loop because EDIFF is reached ----------------------------------------


 


 total charge     
 
# of ion       s       p       d       tot
------------------------------------------
    1        1.083   1.374   0.000   2.457
    2        1.083   1.374   0.000   2.457
    3        1.087   1.372   0.000   2.459
    4        1.087   1.372   0.000   2.459
    5        1.088   1.371   0.000   2.460
    6        1.088   1.371   0.000   2.460
    7        1.088   1.371   0.000   2.460
    8        1.088   1.371   0.000   2.460
    9        1.087   1.372   0.000   2.459
   10        1.087   1.372   0.000   2.459
   11        1.083   1.374   0.000   2.457
   12        1.083   1.374   0.000   2.457
--------------------------------------------------
tot         13.032  16.470   0.000  29.501
 
    CHARGE:  cpu time    0.0540: real time    0.0543
    FORLOC:  cpu time    0.0015: real time    0.0015
    FORNL :  cpu time    0.2097: real time    0.2097
    STRESS:  cpu time    0.3208: real time    0.3209
    FORCOR:  cpu time    0.0202: real time    0.0202
    FORHAR:  cpu time    0.0056: real time    0.0056
    MIXING:  cpu time    0.0011: real time    0.0011
    OFIELD:  cpu time    0.0000: real time    0.0000

  DFT-D2 method for vdW energy calculation
  -------------------------------------------------------------------

  Parameters of vdW forcefield:
         C6(Jnm^6/mol)     R0(A)
   -----------------------------
   P        7.840          1.705

  IVDW =  10
  VDW_RADIUS =    50.000 A
  VDW_S6 =     0.750
  VDW_SR =     1.000
  VDW_D =    20.000
  LVDW_EWALD = F

  Number of pair interactions contributing to vdW energy:   88350
  Edisp (eV):   -2.08565
    FORVDW:  cpu time    0.0524: real time    0.0535

  FORCE on cell =-STRESS in cart. coord.  units (eV):
  Direction    XX          YY          ZZ          XY          YZ          ZX
  --------------------------------------------------------------------------------------
  Alpha Z    30.28014    30.28014    30.28014
  Ewald   16590.51958-17991.47779 16385.24763    -0.00000     0.00000     0.00000
  Hartree 16900.97604-16745.18476 16820.21732    -0.00000    -0.00000    -0.00000
  E(xc)    -201.85954  -202.66511  -202.06507    -0.00000    -0.00000    -0.00000
  Local  -34445.09488 33745.61403-34181.19908    -0.00000     0.00000    -0.00000
  n-local   681.46390   677.50192   676.45724    -0.00000     0.00000     2.08619
  augment  -126.70139  -130.52808  -129.28755     0.00000     0.00000     0.00000
  Kinetic   569.27286   624.01589   602.10284     0.00000     0.00000     8.21356
  Fock        0.00000     0.00000     0.00000     0.00000     0.00000     0.00000
  vdW        -0.39704    -1.16456    -0.96856    -0.00000    -0.00000     0.00000
  -------------------------------------------------------------------------------------
  Total      -1.54033     6.39168     0.78492     0.00000     0.00000     0.00000
  in kB      -5.17599    21.47796     2.63757     0.00000     0.00000     0.00000
  external pressure =        6.31 kB  Pullay stress =        0.00 kB


 VOLUME and BASIS-vectors are now :
 -----------------------------------------------------------------------------
  energy-cutoff  :      450.00
  volume of cell :      476.80
      direct lattice vectors                 reciprocal lattice vectors
     3.342886000  0.000000000  0.000000000     0.299142717  0.000000000  0.000000000
     0.000000000 32.602409000  0.000000000     0.000000000  0.030672580  0.000000000
     0.000000000  0.000000000  4.374831000     0.000000000  0.000000000  0.228580258

  length of vectors
     3.342886000 32.602409000  4.374831000     0.299142717  0.030672580  0.228580258


 FORCES acting on ions
    electron-ion (+dipol)            ewald-force                    non-local-force                 convergence-correction
 -----------------------------------------------------------------------------------------------
   -.569E-15 0.822E+03 -.289E+02   0.141E-14 -.828E+03 0.340E+02   -.555E-16 0.560E+01 -.514E+01   0.105E-14 0.953E-03 -.158E-03
   -.114E-13 0.822E+03 0.289E+02   -.486E-14 -.828E+03 -.340E+02   0.278E-16 0.560E+01 0.514E+01   -.828E-16 0.953E-03 0.158E-03
   -.207E-14 0.463E+03 0.311E+02   0.143E-14 -.458E+03 -.368E+02   -.278E-16 -.538E+01 0.563E+01   0.746E-15 0.621E-04 0.851E-04
   -.196E-13 0.463E+03 -.311E+02   -.914E-14 -.458E+03 0.368E+02   0.278E-16 -.538E+01 -.563E+01   0.595E-15 0.621E-04 -.851E-04
   -.138E-13 0.179E+03 -.310E+02   0.131E-15 -.184E+03 0.367E+02   0.000E+00 0.548E+01 -.560E+01   -.436E-17 -.306E-03 -.265E-04
   0.156E-15 0.179E+03 0.310E+02   -.493E-14 -.184E+03 -.367E+02   0.000E+00 0.548E+01 0.560E+01   0.777E-15 -.306E-03 0.265E-04
   -.112E-13 -.179E+03 0.310E+02   0.259E-14 0.184E+03 -.367E+02   0.000E+00 -.548E+01 0.560E+01   -.338E-16 0.306E-03 0.265E-04
   -.587E-15 -.179E+03 -.310E+02   -.643E-14 0.184E+03 0.367E+02   0.000E+00 -.548E+01 -.560E+01   0.625E-15 0.306E-03 -.265E-04
   -.213E-14 -.463E+03 -.311E+02   0.129E-14 0.458E+03 0.368E+02   0.278E-16 0.538E+01 -.563E+01   0.122E-14 -.621E-04 -.851E-04
   -.152E-13 -.463E+03 0.311E+02   -.223E-14 0.458E+03 -.368E+02   -.278E-16 0.538E+01 0.563E+01   -.453E-15 -.621E-04 0.851E-04
   -.126E-14 -.822E+03 0.289E+02   0.131E-14 0.828E+03 -.340E+02   0.555E-16 -.560E+01 0.514E+01   0.133E-14 -.953E-03 0.158E-03
   -.148E-13 -.822E+03 -.289E+02   -.650E-14 0.828E+03 0.340E+02   -.278E-16 -.560E+01 -.514E+01   -.371E-15 -.953E-03 -.158E-03
 -----------------------------------------------------------------------------------------------
   -.925E-13 0.275E-11 0.433E-10   -.259E-13 0.227E-12 0.000E+00   0.000E+00 0.000E+00 -.178E-14   0.540E-14 -.351E-11 -.678E-14
 
 
 POSITION                                       TOTAL-FORCE (eV/Angst)
 -----------------------------------------------------------------------------------
      0.00000     10.00001      4.02014         0.000000     -0.090307     -0.100616
      1.67144     10.00001      2.54211         0.000000     -0.090307      0.100616
      0.00000     12.14332      0.35469         0.000000     -0.313100     -0.060679
      1.67144     12.14332      1.83272         0.000000     -0.313100      0.060679
      1.67144     15.22953      1.83272         0.000000      0.243986      0.097192
      0.00000     15.22953      0.35469         0.000000      0.243986     -0.097192
      1.67144     17.37288      2.54211         0.000000     -0.243986     -0.097192
      0.00000     17.37288      4.02014         0.000000     -0.243986      0.097192
      0.00000     20.45909      4.02014         0.000000      0.313100      0.060679
      1.67144     20.45909      2.54211         0.000000      0.313100     -0.060679
      0.00000     22.60240      0.35469         0.000000      0.090307      0.100616
      1.67144     22.60240      1.83272         0.000000      0.090307     -0.100616
 -----------------------------------------------------------------------------------
    total drift:                               -0.000000     -0.000000      0.000000


--------------------------------------------------------------------------------------------------------



  FREE ENERGIE OF THE ION-ELECTRON SYSTEM (eV)
  ---------------------------------------------------
  free  energy   TOTEN  =       -65.85704315 eV

  energy  without entropy=      -65.85704315  energy(sigma->0) =      -65.85704315
 


--------------------------------------------------------------------------------------------------------


    POTLOK:  cpu time    0.1240: real time    0.1240


--------------------------------------------------------------------------------------------------------


 writing wavefunctions
     LOOP+:  cpu time   23.7990: real time   23.8663
    4ORBIT:  cpu time    0.0000: real time    0.0000
 


 total charge     
 
# of ion       s       p       d       tot
------------------------------------------
    1        1.083   1.374   0.000   2.457
    2        1.083   1.374   0.000   2.457
    3        1.087   1.372   0.000   2.459
    4        1.087   1.372   0.000   2.459
    5        1.088   1.371   0.000   2.460
    6        1.088   1.371   0.000   2.460
    7        1.088   1.371   0.000   2.460
    8        1.088   1.371   0.000   2.460
    9        1.087   1.372   0.000   2.459
   10        1.087   1.372   0.000   2.459
   11        1.083   1.374   0.000   2.457
   12        1.083   1.374   0.000   2.457
--------------------------------------------------
tot         13.032  16.470   0.000  29.501
 

 total amount of memory used by VASP MPI-rank0    39791. kBytes
=======================================================================

   base      :      30000. kBytes
   nonl-proj :       1901. kBytes
   fftplans  :       1467. kBytes
   grid      :       2232. kBytes
   one-center:          6. kBytes
   wavefun   :       4185. kBytes
 
  
  
 General timing and accounting informations for this job:
 ========================================================
  
                  Total CPU time used (sec):       30.690
                            User time (sec):       27.483
                          System time (sec):        3.207
                         Elapsed time (sec):       31.369
  
                   Maximum memory used (kb):      112556.
                   Average memory used (kb):           0.
  
                          Minor page faults:        43923
                          Major page faults:            0
                 Voluntary context switches:         2777
