PROCAR lm decomposed
# of k-points:   20         # of bands:   40         # of ions:   12

 k-point     1 :    0.00000000 0.00000000 0.00000000     weight = 0.01785714

band     1 # energy  -14.95065653 # occ.  2.00000000
 
ion      s     py     pz     px    dxy    dyz    dz2    dxz  x2-y2    tot
    1  0.015  0.001  0.000  0.000  0.000  0.000  0.000  0.000  0.000  0.016
    2  0.015  0.001  0.000  0.000  0.000  0.000  0.000  0.000  0.000  0.016
    3  0.024  0.000  0.000  0.000  0.000  0.000  0.000  0.000  0.000  0.025
    4  0.024  0.000  0.000  0.000  0.000  0.000  0.000  0.000  0.000  0.025
    5  0.083  0.002  0.001  0.000  0.000  0.000  0.000  0.000  0.000  0.087
    6  0.083  0.002  0.001  0.000  0.000  0.000  0.000  0.000  0.000  0.087
    7  0.083  0.002  0.001  0.000  0.000  0.000  0.000  0.000  0.000  0.087
    8  0.083  0.002  0.001  0.000  0.000  0.000  0.000  0.000  0.000  0.087
    9  0.024  0.000  0.000  0.000  0.000  0.000  0.000  0.000  0.000  0.025
   10  0.024  0.000  0.000  0.000  0.000  0.000  0.000  0.000  0.000  0.025
   11  0.015  0.001  0.000  0.000  0.000  0.000  0.000  0.000  0.000  0.016
   12  0.015  0.001  0.000  0.000  0.000  0.000  0.000  0.000  0.000  0.016
tot    0.489  0.012  0.008  0.000  0.000  0.000  0.000  0.000  0.000  0.510
 
band     2 # energy  -14.77834453 # occ.  2.00000000
 
ion      s     py     pz     px    dxy    dyz    dz2    dxz  x2-y2    tot
    1  0.057  0.002  0.001  0.000  0.000  0.000  0.000  0.000  0.000  0.060
    2  0.057  0.002  0.001  0.000  0.000  0.000  0.000  0.000  0.000  0.060
    3  0.065  0.002  0.001  0.000  0.000  0.000  0.000  0.000  0.000  0.068
    4  0.065  0.002  0.001  0.000  0.000  0.000  0.000  0.000  0.000  0.068
    5  0.001  0.000  0.000  0.000  0.000  0.000  0.000  0.000  0.000  0.001
    6  0.001  0.000  0.000  0.000  0.000  0.000  0.000  0.000  0.000  0.001
    7  0.001  0.000  0.000  0.000  0.000  0.000  0.000  0.000  0.000  0.001
    8  0.001  0.000  0.000  0.000  0.000  0.000  0.000  0.000  0.000  0.001
    9  0.065  0.002  0.001  0.000  0.000  0.000  0.000  0.000  0.000  0.068
   10  0.065  0.002  0.001  0.000  0.000  0.000  0.000  0.000  0.000  0.068
   11  0.057  0.002  0.001  0.000  0.000  0.000  0.000  0.000  0.000  0.060
   12  0.057  0.002  0.001  0.000  0.000  0.000  0.000  0.000  0.000  0.060
tot    0.490  0.016  0.008  0.000  0.000  0.000  0.000  0.000  0.000  0.514
 
band     3 # energy  -14.68050354 # occ.  2.00000000
 
ion      s     py     pz     px    dxy    dyz    dz2    dxz  x2-y2    tot
    1  0.044  0.002  0.001  0.000  0.000  0.000  0.000  0.000  0.000  0.046
    2  0.044  0.002  0.001  0.000  0.000  0.000  0.000  0.000  0.000  0.046
    3  0.040  0.002  0.001  0.000  0.000  0.000  0.000  0.000  0.000  0.043
    4  0.040  0.002  0.001  0.000  0.000  0.000  0.000  0.000  0.000  0.043
    5  0.039  0.002  0.001  0.000  0.000  0.000  0.000  0.000  0.000  0.041
    6  0.039  0.002  0.001  0.000  0.000  0.000  0.000  0.000  0.000  0.041
    7  0.039  0.002  0.001  0.000  0.000  0.000  0.000  0.000  0.000  0.041
    8  0.039  0.002  0.001  0.000  0.000  0.000  0.000  0.000  0.000  0.041
    9  0.040  0.002  0.001  0.000  0.000  0.000  0.000  0.000  0.000  0.043
   10  0.040  0.002  0.001  0.000  0.000  0.000  0.000  0.000  0.000  0.043
   11  0.044  0.002  0.001  0.000  0.000  0.000  0.000  0.000  0.000  0.046
   12  0.044  0.002  0.001  0.000  0.000  0.000  0.000  0.000  0.000  0.046
tot    0.491  0.020  0.008  0.000  0.000  0.000  0.000  0.000  0.000  0.519
 
band     4 # energy  -12.55981850 # occ.  2.00000000
 
ion      s     py     pz     px    dxy    dyz    dz2    dxz  x2-y2    tot
    1  0.031  0.000  0.002  0.000  0.000  0.000  0.000  0.000  0.000  0.033
    2  0.031  0.000  0.002  0.000  0.000  0.000  0.000  0.000  0.000  0.033
    3  0.018  0.001  0.002  0.000  0.000  0.000  0.000  0.000  0.000  0.021
    4  0.018  0.001  0.002  0.000  0.000  0.000  0.000  0.000  0.000  0.021
    5  0.072  0.001  0.006  0.000  0.000  0.000  0.000  0.000  0.000  0.080
    6  0.072  0.001  0.006  0.000  0.000  0.000  0.000  0.000  0.000  0.080
    7  0.072  0.001  0.006  0.000  0.000  0.000  0.000  0.000  0.000  0.080
    8  0.072  0.001  0.006  0.000  0.000  0.000  0.000  0.000  0.000  0.080
    9  0.018  0.001  0.002  0.000  0.000  0.000  0.000  0.000  0.000  0.021
   10  0.018  0.001  0.002  0.000  0.000  0.000  0.000  0.000  0.000  0.021
   11  0.031  0.000  0.002  0.000  0.000  0.000  0.000  0.000  0.000  0.033
   12  0.031  0.000  0.002  0.000  0.000  0.000  0.000  0.000  0.000  0.033
tot    0.485  0.011  0.042  0.000  0.000  0.000  0.000  0.000  0.000  0.538
 
band     5 # energy  -12.18605178 # occ.  2.00000000
 
ion      s     py     pz     px    dxy    dyz    dz2    dxz  x2-y2    tot
    1  0.066  0.001  0.006  0.000  0.000  0.000  0.000  0.000  0.000  0.072
    2  0.066  0.001  0.006  0.000  0.000  0.000  0.000  0.000  0.000  0.072
    3  0.059  0.001  0.006  0.000  0.000  0.000  0.000  0.000  0.000  0.066
    4  0.059  0.001  0.006  0.000  0.000  0.000  0.000  0.000  0.000  0.066
    5  0.001  0.001  0.000  0.000  0.000  0.000  0.000  0.000  0.000  0.001
    6  0.001  0.001  0.000  0.000  0.000  0.000  0.000  0.000  0.000  0.001
    7  0.001  0.001  0.000  0.000  0.000  0.000  0.000  0.000  0.000  0.001
    8  0.001  0.001  0.000  0.000  0.000  0.000  0.000  0.000  0.000  0.001
    9  0.059  0.001  0.006  0.000  0.000  0.000  0.000  0.000  0.000  0.066
   10  0.059  0.001  0.006  0.000  0.000  0.000  0.000  0.000  0.000  0.066
   11  0.066  0.001  0.006  0.000  0.000  0.000  0.000  0.000  0.000  0.072
   12  0.066  0.001  0.006  0.000  0.000  0.000  0.000  0.000  0.000  0.072
tot    0.501  0.008  0.046  0.000  0.000  0.000  0.000  0.000  0.000  0.555
 
band     6 # energy  -11.93024153 # occ.  2.00000000
 
ion      s     py     pz     px    dxy    dyz    dz2    dxz  x2-y2    tot
    1  0.036  0.001  0.004  0.000  0.000  0.000  0.000  0.000  0.000  0.041
    2  0.036  0.001  0.004  0.000  0.000  0.000  0.000  0.000  0.000  0.041
    3  0.041  0.000  0.004  0.000  0.000  0.000  0.000  0.000  0.000  0.045
    4  0.041  0.000  0.004  0.000  0.000  0.000  0.000  0.000  0.000  0.045
    5  0.052  0.000  0.005  0.000  0.000  0.000  0.000  0.000  0.000  0.057
    6  0.052  0.000  0.005  0.000  0.000  0.000  0.000  0.000  0.000  0.057
    7  0.052  0.000  0.005  0.000  0.000  0.000  0.000  0.000  0.000  0.057
    8  0.052  0.000  0.005  0.000  0.000  0.000  0.000  0.000  0.000  0.057
    9  0.041  0.000  0.004  0.000  0.000  0.000  0.000  0.000  0.000  0.045
   10  0.041  0.000  0.004  0.000  0.000  0.000  0.000  0.000  0.000  0.045
   11  0.036  0.001  0.004  0.000  0.000  0.000  0.000  0.000  0.000  0.041
   12  0.036  0.001  0.004  0.000  0.000  0.000  0.000  0.000  0.000  0.041
tot    0.518  0.004  0.051  0.000  0.000  0.000  0.000  0.000  0.000  0.573
 
band     7 # energy   -8.67856913 # occ.  2.00000000
 
ion      s     py     pz     px    dxy    dyz    dz2    dxz  x2-y2    tot
    1  0.016  0.002  0.001  0.000  0.000  0.000  0.000  0.000  0.000  0.019
    2  0.016  0.002  0.001  0.000  0.000  0.000  0.000  0.000  0.000  0.019
    3  0.021  0.001  0.002  0.000  0.000  0.000  0.000  0.000  0.000  0.024
    4  0.021  0.001  0.002  0.000  0.000  0.000  0.000  0.000  0.000  0.024
    5  0.089  0.008  0.008  0.000  0.000  0.000  0.000  0.000  0.000  0.105
    6  0.089  0.008  0.008  0.000  0.000  0.000  0.000  0.000  0.000  0.105
    7  0.089  0.008  0.008  0.000  0.000  0.000  0.000  0.000  0.000  0.105
    8  0.089  0.008  0.008  0.000  0.000  0.000  0.000  0.000  0.000  0.105
    9  0.021  0.001  0.002  0.000  0.000  0.000  0.000  0.000  0.000  0.024
   10  0.021  0.001  0.002  0.000  0.000  0.000  0.000  0.000  0.000  0.024
   11  0.016  0.002  0.001  0.000  0.000  0.000  0.000  0.000  0.000  0.019
   12  0.016  0.002  0.001  0.000  0.000  0.000  0.000  0.000  0.000  0.019
tot    0.507  0.043  0.046  0.000  0.000  0.000  0.000  0.000  0.000  0.596
 
band     8 # energy   -8.55295986 # occ.  2.00000000
 
ion      s     py     pz     px    dxy    dyz    dz2    dxz  x2-y2    tot
    1  0.061  0.007  0.006  0.000  0.000  0.000  0.000  0.000  0.000  0.073
    2  0.061  0.007  0.006  0.000  0.000  0.000  0.000  0.000  0.000  0.073
    3  0.065  0.006  0.006  0.000  0.000  0.000  0.000  0.000  0.000  0.077
    4  0.065  0.006  0.006  0.000  0.000  0.000  0.000  0.000  0.000  0.077
    5  0.000  0.000  0.000  0.000  0.000  0.000  0.000  0.000  0.000  0.000
    6  0.000  0.000  0.000  0.000  0.000  0.000  0.000  0.000  0.000  0.000
    7  0.000  0.000  0.000  0.000  0.000  0.000  0.000  0.000  0.000  0.000
    8  0.000  0.000  0.000  0.000  0.000  0.000  0.000  0.000  0.000  0.000
    9  0.065  0.006  0.006  0.000  0.000  0.000  0.000  0.000  0.000  0.077
   10  0.065  0.006  0.006  0.000  0.000  0.000  0.000  0.000  0.000  0.077
   11  0.061  0.007  0.006  0.000  0.000  0.000  0.000  0.000  0.000  0.073
   12  0.061  0.007  0.006  0.000  0.000  0.000  0.000  0.000  0.000  0.073
tot    0.503  0.051  0.046  0.000  0.000  0.000  0.000  0.000  0.000  0.599
 
band     9 # energy   -8.49486330 # occ.  2.00000000
 
ion      s     py     pz     px    dxy    dyz    dz2    dxz  x2-y2    tot
    1  0.045  0.005  0.004  0.000  0.000  0.000  0.000  0.000  0.000  0.054
    2  0.045  0.005  0.004  0.000  0.000  0.000  0.000  0.000  0.000  0.054
    3  0.043  0.005  0.004  0.000  0.000  0.000  0.000  0.000  0.000  0.052
    4  0.043  0.005  0.004  0.000  0.000  0.000  0.000  0.000  0.000  0.052
    5  0.036  0.005  0.003  0.000  0.000  0.000  0.000  0.000  0.000  0.044
    6  0.036  0.005  0.003  0.000  0.000  0.000  0.000  0.000  0.000  0.044
    7  0.036  0.005  0.003  0.000  0.000  0.000  0.000  0.000  0.000  0.044
    8  0.036  0.005  0.003  0.000  0.000  0.000  0.000  0.000  0.000  0.044
    9  0.043  0.005  0.004  0.000  0.000  0.000  0.000  0.000  0.000  0.052
   10  0.043  0.005  0.004  0.000  0.000  0.000  0.000  0.000  0.000  0.052
   11  0.045  0.005  0.004  0.000  0.000  0.000  0.000  0.000  0.000  0.054
   12  0.045  0.005  0.004  0.000  0.000  0.000  0.000  0.000  0.000  0.054
tot    0.499  0.058  0.046  0.000  0.000  0.000  0.000  0.000  0.000  0.603
 
band    10 # energy   -6.29742447 # occ.  2.00000000
 
ion      s     py     pz     px    dxy    dyz    dz2    dxz  x2-y2    tot
    1  0.002  0.011  0.006  0.000  0.000  0.000  0.000  0.000  0.000  0.019
    2  0.002  0.011  0.006  0.000  0.000  0.000  0.000  0.000  0.000  0.019
    3  0.000  0.024  0.001  0.000  0.000  0.000  0.000  0.000  0.000  0.024
    4  0.000  0.024  0.001  0.000  0.000  0.000  0.000  0.000  0.000  0.024
    5  0.001  0.045  0.007  0.000  0.000  0.000  0.000  0.000  0.000  0.053
    6  0.001  0.045  0.007  0.000  0.000  0.000  0.000  0.000  0.000  0.053
    7  0.001  0.045  0.007  0.000  0.000  0.000  0.000  0.000  0.000  0.053
    8  0.001  0.045  0.007  0.000  0.000  0.000  0.000  0.000  0.000  0.053
    9  0.000  0.024  0.001  0.000  0.000  0.000  0.000  0.000  0.000  0.024
   10  0.000  0.024  0.001  0.000  0.000  0.000  0.000  0.000  0.000  0.024
   11  0.002  0.011  0.006  0.000  0.000  0.000  0.000  0.000  0.000  0.019
   12  0.002  0.011  0.006  0.000  0.000  0.000  0.000  0.000  0.000  0.019
tot    0.009  0.320  0.055  0.000  0.000  0.000  0.000  0.000  0.000  0.384
 
band    11 # energy   -5.60645438 # occ.  2.00000000
 
ion      s     py     pz     px    dxy    dyz    dz2    dxz  x2-y2    tot
    1  0.002  0.030  0.011  0.000  0.000  0.000  0.000  0.000  0.000  0.043
    2  0.002  0.030  0.011  0.000  0.000  0.000  0.000  0.000  0.000  0.043
    3  0.001  0.040  0.005  0.000  0.000  0.000  0.000  0.000  0.000  0.046
    4  0.001  0.040  0.005  0.000  0.000  0.000  0.000  0.000  0.000  0.046
    5  0.001  0.004  0.006  0.000  0.000  0.000  0.000  0.000  0.000  0.011
    6  0.001  0.004  0.006  0.000  0.000  0.000  0.000  0.000  0.000  0.011
    7  0.001  0.004  0.006  0.000  0.000  0.000  0.000  0.000  0.000  0.011
    8  0.001  0.004  0.006  0.000  0.000  0.000  0.000  0.000  0.000  0.011
    9  0.001  0.040  0.005  0.000  0.000  0.000  0.000  0.000  0.000  0.046
   10  0.001  0.040  0.005  0.000  0.000  0.000  0.000  0.000  0.000  0.046
   11  0.002  0.030  0.011  0.000  0.000  0.000  0.000  0.000  0.000  0.043
   12  0.002  0.030  0.011  0.000  0.000  0.000  0.000  0.000  0.000  0.043
tot    0.014  0.298  0.091  0.000  0.000  0.000  0.000  0.000  0.000  0.403
 
band    12 # energy   -4.86932594 # occ.  2.00000000
 
ion      s     py     pz     px    dxy    dyz    dz2    dxz  x2-y2    tot
    1  0.001  0.034  0.001  0.000  0.000  0.000  0.000  0.000  0.000  0.036
    2  0.001  0.034  0.001  0.000  0.000  0.000  0.000  0.000  0.000  0.036
    3  0.002  0.011  0.023  0.000  0.000  0.000  0.000  0.000  0.000  0.036
    4  0.002  0.011  0.023  0.000  0.000  0.000  0.000  0.000  0.000  0.036
    5  0.002  0.025  0.010  0.000  0.000  0.000  0.000  0.000  0.000  0.036
    6  0.002  0.025  0.010  0.000  0.000  0.000  0.000  0.000  0.000  0.036
    7  0.002  0.025  0.010  0.000  0.000  0.000  0.000  0.000  0.000  0.036
    8  0.002  0.025  0.010  0.000  0.000  0.000  0.000  0.000  0.000  0.036
    9  0.002  0.011  0.023  0.000  0.000  0.000  0.000  0.000  0.000  0.036
   10  0.002  0.011  0.023  0.000  0.000  0.000  0.000  0.000  0.000  0.036
   11  0.001  0.034  0.001  0.000  0.000  0.000  0.000  0.000  0.000  0.036
   12  0.001  0.034  0.001  0.000  0.000  0.000  0.000  0.000  0.000  0.036
tot    0.017  0.282  0.137  0.000  0.000  0.000  0.000  0.000  0.000  0.436
 
band    13 # energy   -4.77966463 # occ.  2.00000000
 
ion      s     py     pz     px    dxy    dyz    dz2    dxz  x2-y2    tot
    1  0.028  0.000  0.003  0.000  0.000  0.000  0.000  0.000  0.000  0.032
    2  0.028  0.000  0.003  0.000  0.000  0.000  0.000  0.000  0.000  0.032
    3  0.025  0.005  0.002  0.000  0.000  0.000  0.000  0.000  0.000  0.032
    4  0.025  0.005  0.002  0.000  0.000  0.000  0.000  0.000  0.000  0.032
    5  0.075  0.005  0.007  0.000  0.000  0.000  0.000  0.000  0.000  0.088
    6  0.075  0.005  0.007  0.000  0.000  0.000  0.000  0.000  0.000  0.088
    7  0.075  0.005  0.007  0.000  0.000  0.000  0.000  0.000  0.000  0.088
    8  0.075  0.005  0.007  0.000  0.000  0.000  0.000  0.000  0.000  0.088
    9  0.025  0.005  0.002  0.000  0.000  0.000  0.000  0.000  0.000  0.032
   10  0.025  0.005  0.002  0.000  0.000  0.000  0.000  0.000  0.000  0.032
   11  0.028  0.000  0.003  0.000  0.000  0.000  0.000  0.000  0.000  0.032
   12  0.028  0.000  0.003  0.000  0.000  0.000  0.000  0.000  0.000  0.032
tot    0.513  0.043  0.050  0.000  0.000  0.000  0.000  0.000  0.000  0.606
 
band    14 # energy   -4.59692305 # occ.  2.00000000
 
ion      s     py     pz     px    dxy    dyz    dz2    dxz  x2-y2    tot
    1  0.001  0.015  0.005  0.000  0.000  0.000  0.000  0.000  0.000  0.021
    2  0.001  0.015  0.005  0.000  0.000  0.000  0.000  0.000  0.000  0.021
    3  0.000  0.000  0.031  0.000  0.000  0.000  0.000  0.000  0.000  0.031
    4  0.000  0.000  0.031  0.000  0.000  0.000  0.000  0.000  0.000  0.031
    5  0.000  0.007  0.027  0.000  0.000  0.000  0.000  0.000  0.000  0.035
    6  0.000  0.007  0.027  0.000  0.000  0.000  0.000  0.000  0.000  0.035
    7  0.000  0.007  0.027  0.000  0.000  0.000  0.000  0.000  0.000  0.035
    8  0.000  0.007  0.027  0.000  0.000  0.000  0.000  0.000  0.000  0.035
    9  0.000  0.000  0.031  0.000  0.000  0.000  0.000  0.000  0.000  0.031
   10  0.000  0.000  0.031  0.000  0.000  0.000  0.000  0.000  0.000  0.031
   11  0.001  0.015  0.005  0.000  0.000  0.000  0.000  0.000  0.000  0.021
   12  0.001  0.015  0.005  0.000  0.000  0.000  0.000  0.000  0.000  0.021
tot    0.005  0.090  0.254  0.000  0.000  0.000  0.000  0.000  0.000  0.349
 
band    15 # energy   -4.27707589 # occ.  2.00000000
 
ion      s     py     pz     px    dxy    dyz    dz2    dxz  x2-y2    tot
    1  0.068  0.003  0.007  0.000  0.000  0.000  0.000  0.000  0.000  0.077
    2  0.068  0.003  0.007  0.000  0.000  0.000  0.000  0.000  0.000  0.077
    3  0.066  0.005  0.007  0.000  0.000  0.000  0.000  0.000  0.000  0.078
    4  0.066  0.005  0.007  0.000  0.000  0.000  0.000  0.000  0.000  0.078
    5  0.000  0.003  0.000  0.000  0.000  0.000  0.000  0.000  0.000  0.003
    6  0.000  0.003  0.000  0.000  0.000  0.000  0.000  0.000  0.000  0.003
    7  0.000  0.003  0.000  0.000  0.000  0.000  0.000  0.000  0.000  0.003
    8  0.000  0.003  0.000  0.000  0.000  0.000  0.000  0.000  0.000  0.003
    9  0.066  0.005  0.007  0.000  0.000  0.000  0.000  0.000  0.000  0.078
   10  0.066  0.005  0.007  0.000  0.000  0.000  0.000  0.000  0.000  0.078
   11  0.068  0.003  0.007  0.000  0.000  0.000  0.000  0.000  0.000  0.077
   12  0.068  0.003  0.007  0.000  0.000  0.000  0.000  0.000  0.000  0.077
tot    0.535  0.040  0.055  0.000  0.000  0.000  0.000  0.000  0.000  0.631
 
band    16 # energy   -4.21287419 # occ.  2.00000000
 
ion      s     py     pz     px    dxy    dyz    dz2    dxz  x2-y2    tot
    1  0.001  0.002  0.035  0.000  0.000  0.000  0.000  0.000  0.000  0.038
    2  0.001  0.002  0.035  0.000  0.000  0.000  0.000  0.000  0.000  0.038
    3  0.002  0.012  0.022  0.000  0.000  0.000  0.000  0.000  0.000  0.036
    4  0.002  0.012  0.022  0.000  0.000  0.000  0.000  0.000  0.000  0.036
    5  0.001  0.006  0.010  0.000  0.000  0.000  0.000  0.000  0.000  0.017
    6  0.001  0.006  0.010  0.000  0.000  0.000  0.000  0.000  0.000  0.017
    7  0.001  0.006  0.010  0.000  0.000  0.000  0.000  0.000  0.000  0.017
    8  0.001  0.006  0.010  0.000  0.000  0.000  0.000  0.000  0.000  0.017
    9  0.002  0.012  0.022  0.000  0.000  0.000  0.000  0.000  0.000  0.036
   10  0.002  0.012  0.022  0.000  0.000  0.000  0.000  0.000  0.000  0.036
   11  0.001  0.002  0.035  0.000  0.000  0.000  0.000  0.000  0.000  0.038
   12  0.001  0.002  0.035  0.000  0.000  0.000  0.000  0.000  0.000  0.038
tot    0.013  0.083  0.267  0.000  0.000  0.000  0.000  0.000  0.000  0.362
 
band    17 # energy   -3.98338368 # occ.  2.00000000
 
ion      s     py     pz     px    dxy    dyz    dz2    dxz  x2-y2    tot
    1  0.000  0.001  0.028  0.000  0.000  0.000  0.000  0.000  0.000  0.030
    2  0.000  0.001  0.028  0.000  0.000  0.000  0.000  0.000  0.000  0.030
    3  0.002  0.007  0.009  0.000  0.000  0.000  0.000  0.000  0.000  0.018
    4  0.002  0.007  0.009  0.000  0.000  0.000  0.000  0.000  0.000  0.018
    5  0.002  0.006  0.032  0.000  0.000  0.000  0.000  0.000  0.000  0.040
    6  0.002  0.006  0.032  0.000  0.000  0.000  0.000  0.000  0.000  0.040
    7  0.002  0.006  0.032  0.000  0.000  0.000  0.000  0.000  0.000  0.040
    8  0.002  0.006  0.032  0.000  0.000  0.000  0.000  0.000  0.000  0.040
    9  0.002  0.007  0.009  0.000  0.000  0.000  0.000  0.000  0.000  0.018
   10  0.002  0.007  0.009  0.000  0.000  0.000  0.000  0.000  0.000  0.018
   11  0.000  0.001  0.028  0.000  0.000  0.000  0.000  0.000  0.000  0.030
   12  0.000  0.001  0.028  0.000  0.000  0.000  0.000  0.000  0.000  0.030
tot    0.017  0.057  0.275  0.000  0.000  0.000  0.000  0.000  0.000  0.350
 
band    18 # energy   -3.81736786 # occ.  2.00000000
 
ion      s     py     pz     px    dxy    dyz    dz2    dxz  x2-y2    tot
    1  0.043  0.004  0.005  0.000  0.000  0.000  0.000  0.000  0.000  0.051
    2  0.043  0.004  0.005  0.000  0.000  0.000  0.000  0.000  0.000  0.051
    3  0.043  0.000  0.005  0.000  0.000  0.000  0.000  0.000  0.000  0.048
    4  0.043  0.000  0.005  0.000  0.000  0.000  0.000  0.000  0.000  0.048
    5  0.059  0.002  0.007  0.000  0.000  0.000  0.000  0.000  0.000  0.068
    6  0.059  0.002  0.007  0.000  0.000  0.000  0.000  0.000  0.000  0.068
    7  0.059  0.002  0.007  0.000  0.000  0.000  0.000  0.000  0.000  0.068
    8  0.059  0.002  0.007  0.000  0.000  0.000  0.000  0.000  0.000  0.068
    9  0.043  0.000  0.005  0.000  0.000  0.000  0.000  0.000  0.000  0.048
   10  0.043  0.000  0.005  0.000  0.000  0.000  0.000  0.000  0.000  0.048
   11  0.043  0.004  0.005  0.000  0.000  0.000  0.000  0.000  0.000  0.051
   12  0.043  0.004  0.005  0.000  0.000  0.000  0.000  0.000  0.000  0.051
tot    0.576  0.025  0.064  0.000  0.000  0.000  0.000  0.000  0.000  0.664
 
band    19 # energy   -3.48449754 # occ.  2.00000000
 
ion      s     py     pz     px    dxy    dyz    dz2    dxz  x2-y2    tot
    1  0.000  0.000  0.000  0.013  0.000  0.000  0.000  0.000  0.000  0.013
    2  0.000  0.000  0.000  0.013  0.000  0.000  0.000  0.000  0.000  0.013
    3  0.000  0.000  0.000  0.023  0.000  0.000  0.000  0.000  0.000  0.023
    4  0.000  0.000  0.000  0.023  0.000  0.000  0.000  0.000  0.000  0.023
    5  0.000  0.000  0.000  0.088  0.000  0.000  0.000  0.000  0.000  0.088
    6  0.000  0.000  0.000  0.088  0.000  0.000  0.000  0.000  0.000  0.088
    7  0.000  0.000  0.000  0.088  0.000  0.000  0.000  0.000  0.000  0.088
    8  0.000  0.000  0.000  0.088  0.000  0.000  0.000  0.000  0.000  0.088
    9  0.000  0.000  0.000  0.023  0.000  0.000  0.000  0.000  0.000  0.023
   10  0.000  0.000  0.000  0.023  0.000  0.000  0.000  0.000  0.000  0.023
   11  0.000  0.000  0.000  0.013  0.000  0.000  0.000  0.000  0.000  0.013
   12  0.000  0.000  0.000  0.013  0.000  0.000  0.000  0.000  0.000  0.013
tot    0.000  0.000  0.000  0.495  0.000  0.000  0.000  0.000  0.000  0.495
 
band    20 # energy   -3.33608679 # occ.  2.00000000
 
ion      s     py     pz     px    dxy    dyz    dz2    dxz  x2-y2    tot
    1  0.000  0.000  0.000  0.056  0.000  0.000  0.000  0.000  0.000  0.056
    2  0.000  0.000  0.000  0.056  0.000  0.000  0.000  0.000  0.000  0.056
    3  0.000  0.000  0.000  0.068  0.000  0.000  0.000  0.000  0.000  0.068
    4  0.000  0.000  0.000  0.068  0.000  0.000  0.000  0.000  0.000  0.068
    5  0.000  0.000  0.000  0.001  0.000  0.000  0.000  0.000  0.000  0.001
    6  0.000  0.000  0.000  0.001  0.000  0.000  0.000  0.000  0.000  0.001
    7  0.000  0.000  0.000  0.001  0.000  0.000  0.000  0.000  0.000  0.001
    8  0.000  0.000  0.000  0.001  0.000  0.000  0.000  0.000  0.000  0.001
    9  0.000  0.000  0.000  0.068  0.000  0.000  0.000  0.000  0.000  0.068
   10  0.000  0.000  0.000  0.068  0.000  0.000  0.000  0.000  0.000  0.068
   11  0.000  0.000  0.000  0.056  0.000  0.000  0.000  0.000  0.000  0.056
   12  0.000  0.000  0.000  0.056  0.000  0.000  0.000  0.000  0.000  0.056
tot    0.000  0.000  0.000  0.498  0.000  0.000  0.000  0.000  0.000  0.498
 
band    21 # energy   -3.26301584 # occ.  2.00000000
 
ion      s     py     pz     px    dxy    dyz    dz2    dxz  x2-y2    tot
    1  0.000  0.000  0.000  0.045  0.000  0.000  0.000  0.000  0.000  0.045
    2  0.000  0.000  0.000  0.045  0.000  0.000  0.000  0.000  0.000  0.045
    3  0.000  0.000  0.000  0.044  0.000  0.000  0.000  0.000  0.000  0.044
    4  0.000  0.000  0.000  0.044  0.000  0.000  0.000  0.000  0.000  0.044
    5  0.000  0.000  0.000  0.036  0.000  0.000  0.000  0.000  0.000  0.036
    6  0.000  0.000  0.000  0.036  0.000  0.000  0.000  0.000  0.000  0.036
    7  0.000  0.000  0.000  0.036  0.000  0.000  0.000  0.000  0.000  0.036
    8  0.000  0.000  0.000  0.036  0.000  0.000  0.000  0.000  0.000  0.036
    9  0.000  0.000  0.000  0.044  0.000  0.000  0.000  0.000  0.000  0.044
   10  0.000  0.000  0.000  0.044  0.000  0.000  0.000  0.000  0.000  0.044
   11  0.000  0.000  0.000  0.045  0.000  0.000  0.000  0.000  0.000  0.045
   12  0.000  0.000  0.000  0.045  0.000  0.000  0.000  0.000  0.000  0.045
tot    0.000  0.000  0.000  0.502  0.000  0.000  0.000  0.000  0.000  0.502
 
band    22 # energy   -2.06527046 # occ.  2.00000000
 
ion      s     py     pz     px    dxy    dyz    dz2    dxz  x2-y2    tot
    1  0.000  0.002  0.031  0.000  0.000  0.000  0.000  0.000  0.000  0.033
    2  0.000  0.002  0.031  0.000  0.000  0.000  0.000  0.000  0.000  0.033
    3  0.000  0.001  0.015  0.000  0.000  0.000  0.000  0.000  0.000  0.016
    4  0.000  0.001  0.015  0.000  0.000  0.000  0.000  0.000  0.000  0.016
    5  0.000  0.004  0.045  0.000  0.000  0.000  0.000  0.000  0.000  0.048
    6  0.000  0.004  0.045  0.000  0.000  0.000  0.000  0.000  0.000  0.048
    7  0.000  0.004  0.045  0.000  0.000  0.000  0.000  0.000  0.000  0.048
    8  0.000  0.004  0.045  0.000  0.000  0.000  0.000  0.000  0.000  0.048
    9  0.000  0.001  0.015  0.000  0.000  0.000  0.000  0.000  0.000  0.016
   10  0.000  0.001  0.015  0.000  0.000  0.000  0.000  0.000  0.000  0.016
   11  0.000  0.002  0.031  0.000  0.000  0.000  0.000  0.000  0.000  0.033
   12  0.000  0.002  0.031  0.000  0.000  0.000  0.000  0.000  0.000  0.033
tot    0.002  0.026  0.362  0.000  0.000  0.000  0.000  0.000  0.000  0.391
 
band    23 # energy   -1.85899681 # occ.  2.00000000
 
ion      s     py     pz     px    dxy    dyz    dz2    dxz  x2-y2    tot
    1  0.000  0.000  0.000  0.031  0.000  0.000  0.000  0.000  0.000  0.031
    2  0.000  0.000  0.000  0.031  0.000  0.000  0.000  0.000  0.000  0.031
    3  0.000  0.000  0.000  0.016  0.000  0.000  0.000  0.000  0.000  0.016
    4  0.000  0.000  0.000  0.016  0.000  0.000  0.000  0.000  0.000  0.016
    5  0.000  0.000  0.000  0.084  0.000  0.000  0.000  0.000  0.000  0.084
    6  0.000  0.000  0.000  0.084  0.000  0.000  0.000  0.000  0.000  0.084
    7  0.000  0.000  0.000  0.084  0.000  0.000  0.000  0.000  0.000  0.084
    8  0.000  0.000  0.000  0.084  0.000  0.000  0.000  0.000  0.000  0.084
    9  0.000  0.000  0.000  0.016  0.000  0.000  0.000  0.000  0.000  0.016
   10  0.000  0.000  0.000  0.016  0.000  0.000  0.000  0.000  0.000  0.016
   11  0.000  0.000  0.000  0.031  0.000  0.000  0.000  0.000  0.000  0.031
   12  0.000  0.000  0.000  0.031  0.000  0.000  0.000  0.000  0.000  0.031
tot    0.000  0.000  0.000  0.522  0.000  0.000  0.000  0.000  0.000  0.522
 
band    24 # energy   -1.63125947 # occ.  2.00000000
 
ion      s     py     pz     px    dxy    dyz    dz2    dxz  x2-y2    tot
    1  0.000  0.000  0.000  0.071  0.000  0.000  0.000  0.000  0.000  0.071
    2  0.000  0.000  0.000  0.071  0.000  0.000  0.000  0.000  0.000  0.071
    3  0.000  0.000  0.000  0.062  0.000  0.000  0.000  0.000  0.000  0.062
    4  0.000  0.000  0.000  0.062  0.000  0.000  0.000  0.000  0.000  0.062
    5  0.000  0.000  0.000  0.001  0.000  0.000  0.000  0.000  0.000  0.001
    6  0.000  0.000  0.000  0.001  0.000  0.000  0.000  0.000  0.000  0.001
    7  0.000  0.000  0.000  0.001  0.000  0.000  0.000  0.000  0.000  0.001
    8  0.000  0.000  0.000  0.001  0.000  0.000  0.000  0.000  0.000  0.001
    9  0.000  0.000  0.000  0.062  0.000  0.000  0.000  0.000  0.000  0.062
   10  0.000  0.000  0.000  0.062  0.000  0.000  0.000  0.000  0.000  0.062
   11  0.000  0.000  0.000  0.071  0.000  0.000  0.000  0.000  0.000  0.071
   12  0.000  0.000  0.000  0.071  0.000  0.000  0.000  0.000  0.000  0.071
tot    0.000  0.000  0.000  0.533  0.000  0.000  0.000  0.000  0.000  0.533
 
band    25 # energy   -1.52401158 # occ.  2.00000000
 
ion      s     py     pz     px    dxy    dyz    dz2    dxz  x2-y2    tot
    1  0.000  0.005  0.043  0.000  0.000  0.000  0.000  0.000  0.000  0.049
    2  0.000  0.005  0.043  0.000  0.000  0.000  0.000  0.000  0.000  0.049
    3  0.000  0.006  0.041  0.000  0.000  0.000  0.000  0.000  0.000  0.047
    4  0.000  0.006  0.041  0.000  0.000  0.000  0.000  0.000  0.000  0.047
    5  0.002  0.000  0.003  0.000  0.000  0.000  0.000  0.000  0.000  0.005
    6  0.002  0.000  0.003  0.000  0.000  0.000  0.000  0.000  0.000  0.005
    7  0.002  0.000  0.003  0.000  0.000  0.000  0.000  0.000  0.000  0.005
    8  0.002  0.000  0.003  0.000  0.000  0.000  0.000  0.000  0.000  0.005
    9  0.000  0.006  0.041  0.000  0.000  0.000  0.000  0.000  0.000  0.047
   10  0.000  0.006  0.041  0.000  0.000  0.000  0.000  0.000  0.000  0.047
   11  0.000  0.005  0.043  0.000  0.000  0.000  0.000  0.000  0.000  0.049
   12  0.000  0.005  0.043  0.000  0.000  0.000  0.000  0.000  0.000  0.049
tot    0.009  0.046  0.348  0.000  0.000  0.000  0.000  0.000  0.000  0.403
 
band    26 # energy   -1.51495059 # occ.  2.00000000
 
ion      s     py     pz     px    dxy    dyz    dz2    dxz  x2-y2    tot
    1  0.000  0.000  0.000  0.042  0.000  0.000  0.000  0.000  0.000  0.042
    2  0.000  0.000  0.000  0.042  0.000  0.000  0.000  0.000  0.000  0.042
    3  0.000  0.000  0.000  0.045  0.000  0.000  0.000  0.000  0.000  0.045
    4  0.000  0.000  0.000  0.045  0.000  0.000  0.000  0.000  0.000  0.045
    5  0.000  0.000  0.000  0.048  0.000  0.000  0.000  0.000  0.000  0.048
    6  0.000  0.000  0.000  0.048  0.000  0.000  0.000  0.000  0.000  0.048
    7  0.000  0.000  0.000  0.048  0.000  0.000  0.000  0.000  0.000  0.048
    8  0.000  0.000  0.000  0.048  0.000  0.000  0.000  0.000  0.000  0.048
    9  0.000  0.000  0.000  0.045  0.000  0.000  0.000  0.000  0.000  0.045
   10  0.000  0.000  0.000  0.045  0.000  0.000  0.000  0.000  0.000  0.045
   11  0.000  0.000  0.000  0.042  0.000  0.000  0.000  0.000  0.000  0.042
   12  0.000  0.000  0.000  0.042  0.000  0.000  0.000  0.000  0.000  0.042
tot    0.000  0.000  0.000  0.543  0.000  0.000  0.000  0.000  0.000  0.543
 
band    27 # energy   -0.89467737 # occ.  2.00000000
 
ion      s     py     pz     px    dxy    dyz    dz2    dxz  x2-y2    tot
    1  0.000  0.010  0.012  0.000  0.000  0.000  0.000  0.000  0.000  0.022
    2  0.000  0.010  0.012  0.000  0.000  0.000  0.000  0.000  0.000  0.022
    3  0.003  0.003  0.030  0.000  0.000  0.000  0.000  0.000  0.000  0.036
    4  0.003  0.003  0.030  0.000  0.000  0.000  0.000  0.000  0.000  0.036
    5  0.001  0.010  0.037  0.000  0.000  0.000  0.000  0.000  0.000  0.048
    6  0.001  0.010  0.037  0.000  0.000  0.000  0.000  0.000  0.000  0.048
    7  0.001  0.010  0.037  0.000  0.000  0.000  0.000  0.000  0.000  0.048
    8  0.001  0.010  0.037  0.000  0.000  0.000  0.000  0.000  0.000  0.048