<?xml version="1.0" encoding="ISO-8859-1"?>
<modeling>
 <generator>
  <i name="program" type="string">vasp </i>
  <i name="version" type="string">5.4.4.18Apr17-6-g9f103f2a35  </i>
  <i name="subversion" type="string">(build Jun 20 2017 18:00:50) complex            parallel </i>
  <i name="platform" type="string">LinuxIFC </i>
  <i name="date" type="string">2018 03 22 </i>
  <i name="time" type="string">15:19:17 </i>
 </generator>
 <incar>
  <i type="string" name="SYSTEM"> Generic Input</i>
  <i type="int" name="ISTART">     1</i>
  <i type="string" name="PREC">normal    ! precision level</i>
  <i type="int" name="IALGO">    53</i>
  <i type="string" name="ALGO"> Normal    ! SCF minimisation algorithm</i>
  <i type="int" name="INIWAV">     1</i>
  <i type="int" name="NELM">   200</i>
  <i type="int" name="NELMIN">     2</i>
  <i type="int" name="IBRION">     2</i>
  <i name="EDIFF">      0.00001000</i>
  <i name="EDIFFG">     -0.02000000</i>
  <i type="int" name="NSW">     0</i>
  <i type="int" name="ISIF">     3</i>
  <i type="int" name="IWAVPR">    11</i>
  <i type="int" name="NBLOCK">     1</i>
  <i type="int" name="KBLOCK">    40</i>
  <i name="ENCUT">    450.00000000</i>
  <i type="int" name="NEDOS">  2000</i>
  <i type="int" name="ISMEAR">     0</i>
  <i name="SIGMA">      0.01000000</i>
  <i type="int" name="NWRITE">     2</i>
  <i type="logical" name="LVHAR"> T  </i>
  <i type="int" name="LORBIT">    11</i>
  <i type="logical" name="LASPH"> T  </i>
  <i type="int" name="ICORELEVEL">     1</i>
  <v type="int" name="KPOINT_BSE">    -1     0     0     0</v>
  <i type="int" name="NELM">   200</i>
  <i type="string" name="GGA"> PE        ! PBEsol exchange-correlation</i>
  <i type="logical" name="LASPH"> T  </i>
 </incar>
 <structure name="primitive_cell" >
  <crystal>
   <varray name="basis" >
    <v>       3.34288600       0.00000000       0.00000000 </v>
    <v>       0.00000000      32.60240900       0.00000000 </v>
    <v>       0.00000000       0.00000000       4.37483100 </v>
   </varray>
   <i name="volume">    476.79592902 </i>
   <varray name="rec_basis" >
    <v>       0.29914272       0.00000000       0.00000000 </v>
    <v>       0.00000000       0.03067258       0.00000000 </v>
    <v>       0.00000000       0.00000000       0.22858026 </v>
   </varray>
  </crystal>
  <varray name="positions" >
   <v>       0.00000000       0.30672600      -0.08107600 </v>
   <v>      -0.50000000       0.30672600      -0.41892400 </v>
   <v>       0.00000000       0.37246700       0.08107600 </v>
   <v>      -0.50000000       0.37246700       0.41892400 </v>
   <v>       0.00000000       0.46712900       0.08107600 </v>
   <v>      -0.50000000       0.46712900       0.41892400 </v>
   <v>       0.00000000      -0.46712900      -0.08107600 </v>
   <v>      -0.50000000      -0.46712900      -0.41892400 </v>
   <v>       0.00000000      -0.37246700      -0.08107600 </v>
   <v>      -0.50000000      -0.37246700      -0.41892400 </v>
   <v>       0.00000000      -0.30672600       0.08107600 </v>
   <v>      -0.50000000      -0.30672600       0.41892400 </v>
  </varray>
 </structure>
 <varray name="primitive_index" >
  <v type="int" >        1 </v>
  <v type="int" >        2 </v>
  <v type="int" >        3 </v>
  <v type="int" >        4 </v>
  <v type="int" >        6 </v>
  <v type="int" >        5 </v>
  <v type="int" >        8 </v>
  <v type="int" >        7 </v>
  <v type="int" >        9 </v>
  <v type="int" >       10 </v>
  <v type="int" >       11 </v>
  <v type="int" >       12 </v>
 </varray>
 <kpoints>
  <generation param="Gamma">
   <v type="int" name="divisions">       8        1        7 </v>
   <v name="usershift">      0.00000000       0.00000000       0.00000000 </v>
   <v name="genvec1">      0.12500000       0.00000000       0.00000000 </v>
   <v name="genvec2">      0.00000000       1.00000000       0.00000000 </v>
   <v name="genvec3">      0.00000000       0.00000000       0.14285714 </v>
   <v name="shift">      0.00000000       0.00000000       0.00000000 </v>
  </generation>
  <varray name="kpointlist" >
   <v>       0.00000000       0.00000000       0.00000000 </v>
   <v>       0.12500000       0.00000000       0.00000000 </v>
   <v>       0.25000000       0.00000000       0.00000000 </v>
   <v>       0.37500000       0.00000000       0.00000000 </v>
   <v>       0.50000000       0.00000000       0.00000000 </v>
   <v>       0.00000000       0.00000000       0.14285714 </v>
   <v>       0.12500000       0.00000000       0.14285714 </v>
   <v>       0.25000000       0.00000000       0.14285714 </v>
   <v>       0.37500000       0.00000000       0.14285714 </v>
   <v>       0.50000000       0.00000000       0.14285714 </v>
   <v>       0.00000000       0.00000000       0.28571429 </v>
   <v>       0.12500000       0.00000000       0.28571429 </v>
   <v>       0.25000000       0.00000000       0.28571429 </v>
   <v>       0.37500000       0.00000000       0.28571429 </v>
   <v>       0.50000000       0.00000000       0.28571429 </v>
   <v>       0.00000000       0.00000000       0.42857143 </v>
   <v>       0.12500000       0.00000000       0.42857143 </v>
   <v>       0.25000000       0.00000000       0.42857143 </v>
   <v>       0.37500000       0.00000000       0.42857143 </v>
   <v>       0.50000000       0.00000000       0.42857143 </v>
  </varray>
  <varray name="weights" >
   <v>       0.01785714 </v>
   <v>       0.03571429 </v>
   <v>       0.03571429 </v>
   <v>       0.03571429 </v>
   <v>       0.01785714 </v>
   <v>       0.03571429 </v>
   <v>       0.07142857 </v>
   <v>       0.07142857 </v>
   <v>       0.07142857 </v>
   <v>       0.03571429 </v>
   <v>       0.03571429 </v>
   <v>       0.07142857 </v>
   <v>       0.07142857 </v>
   <v>       0.07142857 </v>
   <v>       0.03571429 </v>
   <v>       0.03571429 </v>
   <v>       0.07142857 </v>
   <v>       0.07142857 </v>
   <v>       0.07142857 </v>
   <v>       0.03571429 </v>
  </varray>
 </kpoints>
 <parameters>
  <separator name="general" >
   <i type="string" name="SYSTEM">Generic Input</i>
   <i type="logical" name="LCOMPAT"> F  </i>
  </separator>
  <separator name="electronic" >
   <i type="string" name="PREC">normal</i>
   <i name="ENMAX">    450.00000000</i>
   <i name="ENAUG">    342.92400000</i>
   <i name="EDIFF">      0.00001000</i>
   <i type="int" name="IALGO">    38</i>
   <i type="int" name="IWAVPR">    11</i>
   <i type="int" name="NBANDS">    40</i>
   <i name="NELECT">     60.00000000</i>
   <i type="int" name="TURBO">     0</i>
   <i type="int" name="IRESTART">     0</i>
   <i type="int" name="NREBOOT">     0</i>
   <i type="int" name="NMIN">     0</i>
   <i name="EREF">      0.00000000</i>
   <separator name="electronic smearing" >
    <i type="int" name="ISMEAR">     0</i>
    <i name="SIGMA">      0.01000000</i>
    <i name="KSPACING">      0.50000000</i>
    <i type="logical" name="KGAMMA"> T  </i>
   </separator>
   <separator name="electronic projectors" >
    <i type="logical" name="LREAL"> F  </i>
    <v name="ROPT">      0.00000000</v>
    <i type="int" name="LMAXPAW">  -100</i>
    <i type="int" name="LMAXMIX">     2</i>
    <i type="logical" name="NLSPLINE"> F  </i>
   </separator>
   <separator name="electronic startup" >
    <i type="int" name="ISTART">     0</i>
    <i type="int" name="ICHARG">     2</i>
    <i type="int" name="INIWAV">     1</i>
   </separator>
   <separator name="electronic spin" >
    <i type="int" name="ISPIN">     1</i>
    <i type="logical" name="LNONCOLLINEAR"> F  </i>
    <v name="MAGMOM">      1.00000000      1.00000000      1.00000000      1.00000000      1.00000000      1.00000000      1.00000000      1.00000000      1.00000000      1.00000000      1.00000000      1.00000000</v>
    <i name="NUPDOWN">     -1.00000000</i>
    <i type="logical" name="LSORBIT"> F  </i>
    <v name="SAXIS">      0.00000000      0.00000000      1.00000000</v>
    <i type="logical" name="LSPIRAL"> F  </i>
    <v name="QSPIRAL">      0.00000000      0.00000000      0.00000000</v>
    <i type="logical" name="LZEROZ"> F  </i>
   </separator>
   <separator name="electronic exchange-correlation" >
    <i type="logical" name="LASPH"> T  </i>
    <i type="logical" name="LMETAGGA"> F  </i>
   </separator>
   <separator name="electronic convergence" >
    <i type="int" name="NELM">   200</i>
    <i type="int" name="NELMDL">     0</i>
    <i type="int" name="NELMIN">     2</i>
    <i name="ENINI">    450.00000000</i>
    <separator name="electronic convergence detail" >
     <i type="logical" name="LDIAG"> T  </i>
     <i type="logical" name="LSUBROT"> F  </i>
     <i name="WEIMIN">      0.00000000</i>
     <i name="EBREAK">      0.00000006</i>
     <i name="DEPER">      0.30000000</i>
     <i type="int" name="NRMM">     4</i>
     <i name="TIME">      0.40000000</i>
    </separator>
   </separator>
   <separator name="electronic mixer" >
    <i name="AMIX">      0.40000000</i>
    <i name="BMIX">      1.00000000</i>
    <i name="AMIN">      0.10000000</i>
    <i name="AMIX_MAG">      1.60000000</i>
    <i name="BMIX_MAG">      1.00000000</i>
    <separator name="electronic mixer details" >
     <i type="int" name="IMIX">     4</i>
     <i type="logical" name="MIXFIRST"> F  </i>
     <i type="int" name="MAXMIX">   -45</i>
     <i name="WC">    100.00000000</i>
     <i type="int" name="INIMIX">     1</i>
     <i type="int" name="MIXPRE">     1</i>
     <i type="int" name="MREMOVE">     5</i>
    </separator>
   </separator>
   <separator name="electronic dipolcorrection" >
    <i type="logical" name="LDIPOL"> F  </i>
    <i type="logical" name="LMONO"> F  </i>
    <i type="int" name="IDIPOL">     0</i>
    <i name="EPSILON">      1.00000000</i>
    <v name="DIPOL">   -100.00000000   -100.00000000   -100.00000000</v>
    <i name="EFIELD">      0.00000000</i>
   </separator>
  </separator>
  <separator name="grids" >
   <i type="int" name="NGX">    18</i>
   <i type="int" name="NGY">   180</i>
   <i type="int" name="NGZ">    24</i>
   <i type="int" name="NGXF">    36</i>
   <i type="int" name="NGYF">   360</i>
   <i type="int" name="NGZF">    48</i>
   <i type="logical" name="ADDGRID"> F  </i>
  </separator>
  <separator name="ionic" >
   <i type="int" name="NSW">     0</i>
   <i type="int" name="IBRION">    -1</i>
   <i type="int" name="MDALGO">     0</i>
   <i type="int" name="ISIF">     3</i>
   <i name="PSTRESS">      0.00000000</i>
   <i name="EDIFFG">     -0.02000000</i>
   <i type="int" name="NFREE">     1</i>
   <i name="POTIM">      0.50000000</i>
   <i name="SMASS">     -3.00000000</i>
   <i name="SCALEE">      1.00000000</i>
  </separator>
  <separator name="ionic md" >
   <i name="TEBEG">      0.00010000</i>
   <i name="TEEND">      0.00010000</i>
   <i type="int" name="NBLOCK">     1</i>
   <i type="int" name="KBLOCK">     1</i>
   <i type="int" name="NPACO">   256</i>
   <i name="APACO">     16.00000000</i>
  </separator>
  <separator name="symmetry" >
   <i type="int" name="ISYM">     2</i>
   <i name="SYMPREC">      0.00001000</i>
  </separator>
  <separator name="dos" >
   <i type="int" name="LORBIT">    11</i>
   <v name="RWIGS">     -1.00000000</v>
   <i type="int" name="NEDOS">  2000</i>
   <i name="EMIN">     10.00000000</i>
   <i name="EMAX">    -10.00000000</i>
   <i name="EFERMI">      0.00000000</i>
  </separator>
  <separator name="writing" >
   <i type="int" name="NWRITE">     2</i>
   <i type="logical" name="LWAVE"> T  </i>
   <i type="logical" name="LDOWNSAMPLE"> F  </i>
   <i type="logical" name="LCHARG"> T  </i>
   <i type="logical" name="LPARD"> F  </i>
   <i type="logical" name="LVTOT"> F  </i>
   <i type="logical" name="LVHAR"> T  </i>
   <i type="logical" name="LELF"> F  </i>
   <i type="logical" name="LOPTICS"> F  </i>
   <v name="STM">      0.00000000      0.00000000      0.00000000      0.00000000      0.00000000      0.00000000      0.00000000</v>
  </separator>
  <separator name="performance" >
   <i type="int" name="NPAR">     4</i>
   <i type="int" name="NSIM">     4</i>
   <i type="int" name="NBLK">    -1</i>
   <i type="logical" name="LPLANE"> T  </i>
   <i type="logical" name="LSCALAPACK"> T  </i>
   <i type="logical" name="LSCAAWARE"> F  </i>
   <i type="logical" name="LSCALU"> F  </i>
   <i type="logical" name="LASYNC"> F  </i>
   <i type="logical" name="LORBITALREAL"> F  </i>
  </separator>
  <separator name="miscellaneous" >
   <i type="int" name="IDIOT">     3</i>
   <i type="int" name="ISPECIAL">     0</i>
   <i type="logical" name="LMUSIC"> F  </i>
   <v name="POMASS">     30.97400000</v>
   <v name="DARWINR">      0.00000000</v>
   <v name="DARWINV">      1.00000000</v>
   <i type="logical" name="LCORR"> T  </i>
  </separator>
  <i type="logical" name="GGA_COMPAT"> T  </i>
  <i type="logical" name="LBERRY"> F  </i>
  <i type="int" name="ICORELEVEL">     1</i>
  <i type="int" name="CLNT">     1</i>
  <i type="int" name="CLN">     1</i>
  <i type="int" name="CLL">     0</i>
  <i name="CLZ">      0.00000000</i>
  <i type="logical" name="LDAU"> F  </i>
  <i type="int" name="I_CONSTRAINED_M">     0</i>
  <separator name="electronic exchange-correlation" >
   <i type="string" name="GGA">PE</i>
   <i type="int" name="VOSKOWN">     0</i>
   <i type="logical" name="LHFCALC"> F  </i>
   <i type="string" name="PRECFOCK"></i>
   <i type="logical" name="LSYMGRAD"> F  </i>
   <i type="logical" name="LHFONE"> F  </i>
   <i type="logical" name="LRHFCALC"> F  </i>
   <i type="logical" name="LTHOMAS"> F  </i>
   <i type="logical" name="LMODELHF"> F  </i>
   <i name="ENCUT4O">     -1.00000000</i>
   <i type="int" name="EXXOEP">     0</i>
   <i type="int" name="FOURORBIT">     0</i>
   <i name="AEXX">      0.00000000</i>
   <i name="HFALPHA">      0.00000000</i>
   <i name="MCALPHA">      0.00000000</i>
   <i name="ALDAX">      1.00000000</i>
   <i name="AGGAX">      1.00000000</i>
   <i name="ALDAC">      1.00000000</i>
   <i name="AGGAC">      1.00000000</i>
   <i type="int" name="NKREDX">     1</i>
   <i type="int" name="NKREDY">     1</i>
   <i type="int" name="NKREDZ">     1</i>
   <i type="logical" name="SHIFTRED"> F  </i>
   <i type="logical" name="ODDONLY"> F  </i>
   <i type="logical" name="EVENONLY"> F  </i>
   <i type="int" name="LMAXFOCK">     0</i>
   <i type="int" name="NMAXFOCKAE">     0</i>
   <i type="logical" name="LFOCKAEDFT"> F  </i>
   <i name="HFSCREEN">      0.00000000</i>
   <i name="HFSCREENC">      0.00000000</i>
   <i type="int" name="NBANDSGWLOW">     0</i>
  </separator>
  <separator name="vdW DFT" >
   <i type="logical" name="LUSE_VDW"> F  </i>
   <i name="Zab_VDW">     -0.84910000</i>
   <i name="PARAM1">      0.12340000</i>
   <i name="PARAM2">      1.00000000</i>
   <i name="PARAM3">      0.00000000</i>
  </separator>
  <separator name="model GW" >
   <i type="int" name="MODEL_GW">     0</i>
   <i name="MODEL_EPS0">     23.83979645</i>
   <i name="MODEL_ALPHA">      1.00000000</i>
  </separator>
  <separator name="linear response parameters" >
   <i type="logical" name="LEPSILON"> F  </i>
   <i type="logical" name="LRPA"> F  </i>
   <i type="logical" name="LNABLA"> F  </i>
   <i type="logical" name="LVEL"> F  </i>
   <i type="int" name="KINTER">     0</i>
   <i name="CSHIFT">      0.10000000</i>
   <i name="OMEGAMAX">     -1.00000000</i>
   <i name="DEG_THRESHOLD">      0.00200000</i>
   <i name="RTIME">     -0.10000000</i>
   <i name="WPLASMAI">      0.00000000</i>
   <v name="DFIELD">      0.00000000      0.00000000      0.00000000</v>
   <v name="WPLASMA">      0.00000000      0.00000000      0.00000000      0.00000000      0.00000000      0.00000000      0.00000000      0.00000000      0.00000000</v>
  </separator>
  <separator name="orbital magnetization" >
   <i type="logical" name="NUCIND"> F  </i>
   <v name="MAGPOS">      0.00000000      0.00000000      0.00000000</v>
   <i type="logical" name="LNICSALL"> T  </i>
   <i type="logical" name="ORBITALMAG"> F  </i>
   <i type="logical" name="LMAGBLOCH"> F  </i>
   <i type="logical" name="LCHIMAG"> F  </i>
   <i type="logical" name="LGAUGE"> T  </i>
   <i type="int" name="MAGATOM">     0</i>
   <v name="MAGDIPOL">      0.00000000      0.00000000      0.00000000</v>
   <v name="AVECCONST">      0.00000000      0.00000000      0.00000000</v>
  </separator>
  <separator name="response functions" >
   <i type="logical" name="LADDER"> F  </i>
   <i type="logical" name="LRPAFORCE"> F  </i>
   <i type="logical" name="LFXC"> F  </i>
   <i type="logical" name="LHARTREE"> T  </i>
   <i type="int" name="IBSE">     0</i>
   <v type="int" name="KPOINT">    -1     0     0     0</v>
   <i type="logical" name="LTCTE"> F  </i>
   <i type="logical" name="LTETE"> F  </i>
   <i type="logical" name="LTRIPLET"> F  </i>
   <i type="logical" name="LFXCEPS"> F  </i>
   <i type="logical" name="LFXHEG"> F  </i>
   <i type="int" name="NATURALO">     2</i>
   <i type="logical" name="L2ORDER"> F  </i>
   <i type="logical" name="LMP2LT"> F  </i>
   <i type="logical" name="LUSEW"> F  </i>
   <i name="ENCUTGW">     -2.00000000</i>
   <i name="ENCUTGWSOFT">     -2.00000000</i>
   <i name="ENCUTLF">     -1.00000000</i>
   <i type="int" name="LMAXMP2">    -1</i>
   <i name="SCISSOR">      0.00000000</i>
   <i type="int" name="NOMEGA">     0</i>
   <i type="int" name="NOMEGAR">     0</i>
   <i type="int" name="NBANDSGW">    -1</i>
   <i type="int" name="NBANDSO">    -1</i>
   <i type="int" name="NBANDSV">    -1</i>
   <i type="int" name="NELM">   200</i>
   <i type="int" name="NELMHF">     1</i>
   <i type="int" name="DIM">     3</i>
   <i type="int" name="ANTIRES">     0</i>
   <i name="OMEGAMAX">    -30.00000000</i>
   <i name="OMEGAMIN">    -30.00000000</i>
   <i name="OMEGATL">   -200.00000000</i>
   <i type="int" name="OMEGAGRID">   140</i>
   <i name="CSHIFT">     -0.10000000</i>
   <i type="logical" name="SELFENERGY"> F  </i>
   <i type="logical" name="LSPECTRAL"> F  </i>
   <i type="logical" name="LSPECTRALGW"> F  </i>
   <i type="logical" name="LSINGLES"> F  </i>
   <i type="logical" name="LFERMIGW"> F  </i>
   <i type="logical" name="ODDONLYGW"> F  </i>
   <i type="logical" name="EVENONLYGW"> F  </i>
   <i type="int" name="NKREDLFX">     1</i>
   <i type="int" name="NKREDLFY">     1</i>
   <i type="int" name="NKREDLFZ">     1</i>
   <i type="int" name="MAXMEM">  2800</i>
   <i type="int" name="TELESCOPE">     0</i>
   <i type="int" name="TAUPAR">     1</i>
   <i type="int" name="OMEGAPAR">    -1</i>
   <i name="LAMBDA">      1.00000000</i>
  </separator>
  <separator name="External order field" >
   <i name="OFIELD_KAPPA">      0.00000000</i>
   <v name="OFIELD_K">      0.00000000      0.00000000      0.00000000</v>
   <i name="OFIELD_Q6_NEAR">      0.00000000</i>
   <i name="OFIELD_Q6_FAR">      0.00000000</i>
   <i name="OFIELD_A">      0.00000000</i>
  </separator>
 </parameters>
 <atominfo>
  <atoms>      12 </atoms>
  <types>       1 </types>
  <array name="atoms" >
   <dimension dim="1">ion</dimension>
   <field type="string">element</field>
   <field type="int">atomtype</field>
   <set>
    <rc><c>P </c><c>   1</c></rc>
    <rc><c>P </c><c>   1</c></rc>
    <rc><c>P </c><c>   1</c></rc>
    <rc><c>P </c><c>   1</c></rc>
    <rc><c>P </c><c>   1</c></rc>
    <rc><c>P </c><c>   1</c></rc>
    <rc><c>P </c><c>   1</c></rc>
    <rc><c>P </c><c>   1</c></rc>
    <rc><c>P </c><c>   1</c></rc>
    <rc><c>P </c><c>   1</c></rc>
    <rc><c>P </c><c>   1</c></rc>
    <rc><c>P </c><c>   1</c></rc>
   </set>
  </array>
  <array name="atomtypes" >
   <dimension dim="1">type</dimension>
   <field type="int">atomspertype</field>
   <field type="string">element</field>
   <field>mass</field>
   <field>valence</field>
   <field type="string">pseudopotential</field>
   <set>
    <rc><c>  12</c><c>P </c><c>     30.97400000</c><c>      5.00000000</c><c>  PAW_PBE P 06Sep2000                   </c></rc>
   </set>
  </array>
 </atominfo>
 <structure name="initialpos" >
  <crystal>
   <varray name="basis" >
    <v>       3.34288600       0.00000000       0.00000000 </v>
    <v>       0.00000000      32.60240900       0.00000000 </v>
    <v>       0.00000000       0.00000000       4.37483100 </v>
   </varray>
   <i name="volume">    476.79592902 </i>
   <varray name="rec_basis" >
    <v>       0.29914272       0.00000000       0.00000000 </v>
    <v>       0.00000000       0.03067258       0.00000000 </v>
    <v>       0.00000000       0.00000000       0.22858026 </v>
   </varray>
  </crystal>
  <varray name="positions" >
   <v>       0.00000000       0.30672600       0.91892400 </v>
   <v>       0.50000000       0.30672600       0.58107600 </v>
   <v>       0.00000000       0.37246700       0.08107600 </v>
   <v>       0.50000000       0.37246700       0.41892400 </v>
   <v>       0.50000000       0.46712900       0.41892400 </v>
   <v>       0.00000000       0.46712900       0.08107600 </v>
   <v>       0.50000000       0.53287100       0.58107600 </v>
   <v>       0.00000000       0.53287100       0.91892400 </v>
   <v>       0.00000000       0.62753300       0.91892400 </v>
   <v>       0.50000000       0.62753300       0.58107600 </v>
   <v>       0.00000000       0.69327400       0.08107600 </v>
   <v>       0.50000000       0.69327400       0.41892400 </v>
  </varray>
 </structure>
 <calculation>
  <scstep>
   <time name="dav">    0.89    0.89</time>
   <time name="total">    1.00    1.00</time>
   <energy>
    <i name="alphaZ">     30.28014394 </i>
    <i name="ewald">  14984.29168251 </i>
    <i name="hartreedc"> -16938.86341412 </i>
    <i name="XCdc">     40.54558770 </i>
    <i name="pawpsdc">   1677.12035881 </i>
    <i name="pawaedc">  -1579.18296132 </i>
    <i name="eentropy">     -0.00028032 </i>
    <i name="bandstr">     33.40617585 </i>
    <i name="atom">   2112.49373795 </i>
    <i name="e_fr_energy">    360.09103101 </i>
    <i name="e_wo_entrp">    360.09131132 </i>
    <i name="e_0_energy">    360.09117116 </i>
   </energy>
  </scstep>
  <scstep>
   <time name="dav">    1.15    1.16</time>
   <time name="total">    1.16    1.16</time>
   <energy>
    <i name="e_fr_energy">    -23.68197022 </i>
    <i name="e_wo_entrp">    -23.68159728 </i>
    <i name="e_0_energy">    -23.68178375 </i>
   </energy>
  </scstep>
  <scstep>
   <time name="dav">    0.99    1.00</time>
   <time name="total">    0.99    1.00</time>
   <energy>
    <i name="e_fr_energy">    -62.72932047 </i>
    <i name="e_wo_entrp">    -62.72932047 </i>
    <i name="e_0_energy">    -62.72932047 </i>
   </energy>
  </scstep>
  <scstep>
   <time name="dav">    1.19    1.19</time>
   <time name="total">    1.19    1.19</time>
   <energy>
    <i name="e_fr_energy">    -64.22051700 </i>
    <i name="e_wo_entrp">    -64.22051700 </i>
    <i name="e_0_energy">    -64.22051700 </i>
   </energy>
  </scstep>
  <scstep>
   <time name="dav">    1.25    1.26</time>
   <time name="total">    1.30    1.31</time>
   <energy>
    <i name="e_fr_energy">    -64.26010240 </i>
    <i name="e_wo_entrp">    -64.26010240 </i>
    <i name="e_0_energy">    -64.26010240 </i>
   </energy>
  </scstep>
  <scstep>
   <time name="dav">    1.04    1.04</time>
   <time name="total">    1.18    1.18</time>
   <energy>
    <i name="e_fr_energy">    -63.92051315 </i>
    <i name="e_wo_entrp">    -63.92051315 </i>
    <i name="e_0_energy">    -63.92051315 </i>
   </energy>
  </scstep>
  <scstep>
   <time name="dav">    1.02    1.02</time>
   <time name="total">    1.15    1.16</time>
   <energy>
    <i name="e_fr_energy">    -63.76991074 </i>
    <i name="e_wo_entrp">    -63.76991074 </i>
    <i name="e_0_energy">    -63.76991074 </i>
   </energy>
  </scstep>
  <scstep>
   <time name="dav">    1.07    1.07</time>
   <time name="total">    1.20    1.21</time>
   <energy>
    <i name="e_fr_energy">    -63.77101831 </i>
    <i name="e_wo_entrp">    -63.77101831 </i>
    <i name="e_0_energy">    -63.77101831 </i>
   </energy>
  </scstep>
  <scstep>
   <time name="dav">    1.29    1.29</time>
   <time name="total">    1.45    1.45</time>
   <energy>
    <i name="e_fr_energy">    -63.77095957 </i>
    <i name="e_wo_entrp">    -63.77095957 </i>
    <i name="e_0_energy">    -63.77095957 </i>
   </energy>
  </scstep>
  <scstep>
   <time name="dav">    1.06    1.06</time>
   <time name="total">    1.20    1.21</time>
   <energy>
    <i name="e_fr_energy">    -63.77077225 </i>
    <i name="e_wo_entrp">    -63.77077225 </i>
    <i name="e_0_energy">    -63.77077225 </i>
   </energy>
  </scstep>
  <scstep>
   <time name="dav">    1.13    1.13</time>
   <time name="total">    1.29    1.30</time>
   <energy>
    <i name="e_fr_energy">    -63.77067813 </i>
    <i name="e_wo_entrp">    -63.77067813 </i>
    <i name="e_0_energy">    -63.77067813 </i>
   </energy>
  </scstep>
  <scstep>
   <time name="dav">    1.03    1.04</time>
   <time name="total">    1.19    1.19</time>
   <energy>
    <i name="e_fr_energy">    -63.77073562 </i>
    <i name="e_wo_entrp">    -63.77073562 </i>
    <i name="e_0_energy">    -63.77073562 </i>
   </energy>
  </scstep>
  <scstep>
   <time name="dav">    1.06    1.06</time>
   <time name="total">    1.20    1.20</time>
   <energy>
    <i name="e_fr_energy">    -63.77090361 </i>
    <i name="e_wo_entrp">    -63.77090361 </i>
    <i name="e_0_energy">    -63.77090361 </i>
   </energy>
  </scstep>
  <scstep>
   <time name="dav">    0.95    0.95</time>
   <time name="total">    1.09    1.09</time>
   <energy>
    <i name="e_fr_energy">    -63.77101568 </i>
    <i name="e_wo_entrp">    -63.77101568 </i>
    <i name="e_0_energy">    -63.77101568 </i>
   </energy>
  </scstep>
  <scstep>
   <time name="dav">    0.85    0.86</time>
   <time name="total">    1.00    1.00</time>
   <energy>
    <i name="e_fr_energy">    -63.77117432 </i>
    <i name="e_wo_entrp">    -63.77117432 </i>
    <i name="e_0_energy">    -63.77117432 </i>
   </energy>
  </scstep>
  <scstep>
   <time name="dav">    0.91    0.91</time>
   <time name="total">    1.06    1.06</time>
   <energy>
    <i name="e_fr_energy">    -63.77131569 </i>
    <i name="e_wo_entrp">    -63.77131569 </i>
    <i name="e_0_energy">    -63.77131569 </i>
   </energy>
  </scstep>
  <scstep>
   <time name="dav">    0.84    0.84</time>
   <time name="total">    0.98    0.98</time>
   <energy>
    <i name="e_fr_energy">    -63.77135136 </i>
    <i name="e_wo_entrp">    -63.77135136 </i>
    <i name="e_0_energy">    -63.77135136 </i>
   </energy>
  </scstep>
  <scstep>
   <time name="dav">    0.84    0.84</time>
   <time name="total">    0.99    0.99</time>
   <energy>
    <i name="e_fr_energy">    -63.77138664 </i>
    <i name="e_wo_entrp">    -63.77138664 </i>
    <i name="e_0_energy">    -63.77138664 </i>
   </energy>
  </scstep>
  <scstep>
   <time name="dav">    0.78    0.78</time>
   <time name="total">    0.95    0.95</time>
   <energy>
    <i name="alphaZ">     30.28014394 </i>
    <i name="ewald">  14984.29168251 </i>
    <i name="hartreedc"> -16975.98752375 </i>
    <i name="XCdc">     43.39652374 </i>
    <i name="pawpsdc">   6389.17899591 </i>
    <i name="pawaedc">  -6292.16847032 </i>
    <i name="eentropy">     -0.00000000 </i>
    <i name="bandstr">   -355.25648658 </i>
    <i name="atom">   2112.49373795 </i>
    <i name="e_fr_energy">    -63.77139660 </i>
    <i name="e_wo_entrp">    -63.77139660 </i>
    <i name="e_0_energy">    -63.77139660 </i>
   </energy>
  </scstep>
  <structure>
   <crystal>
    <varray name="basis" >
     <v>       3.34288600       0.00000000       0.00000000 </v>
     <v>       0.00000000      32.60240900       0.00000000 </v>
     <v>       0.00000000       0.00000000       4.37483100 </v>
    </varray>
    <i name="volume">    476.79592902 </i>
    <varray name="rec_basis" >
     <v>       0.29914272       0.00000000       0.00000000 </v>
     <v>       0.00000000       0.03067258       0.00000000 </v>
     <v>       0.00000000       0.00000000       0.22858026 </v>
    </varray>
   </crystal>
   <varray name="positions" >
    <v>       0.00000000       0.30672600       0.91892400 </v>
    <v>       0.50000000       0.30672600       0.58107600 </v>
    <v>       0.00000000       0.37246700       0.08107600 </v>
    <v>       0.50000000       0.37246700       0.41892400 </v>
    <v>       0.50000000       0.46712900       0.41892400 </v>
    <v>       0.00000000       0.46712900       0.08107600 </v>
    <v>       0.50000000       0.53287100       0.58107600 </v>
    <v>       0.00000000       0.53287100       0.91892400 </v>
    <v>       0.00000000       0.62753300       0.91892400 </v>
    <v>       0.50000000       0.62753300       0.58107600 </v>
    <v>       0.00000000       0.69327400       0.08107600 </v>
    <v>       0.50000000       0.69327400       0.41892400 </v>
   </varray>
  </structure>
  <varray name="forces" >
   <v>       0.00000000      -0.09030733      -0.10061642 </v>
   <v>       0.00000000      -0.09030733       0.10061642 </v>
   <v>       0.00000000      -0.31309972      -0.06067905 </v>
   <v>       0.00000000      -0.31309972       0.06067905 </v>
   <v>       0.00000000       0.24398592       0.09719159 </v>
   <v>       0.00000000       0.24398592      -0.09719159 </v>
   <v>       0.00000000      -0.24398592      -0.09719159 </v>
   <v>       0.00000000      -0.24398592       0.09719159 </v>
   <v>       0.00000000       0.31309972       0.06067905 </v>
   <v>       0.00000000       0.31309972      -0.06067905 </v>
   <v>       0.00000000       0.09030733       0.10061642 </v>
   <v>       0.00000000       0.09030733      -0.10061642 </v>
  </varray>
  <varray name="stress" >
   <v>      -5.17598698       0.00000000       0.00000000 </v>
   <v>       0.00000000      21.47796440      -0.00000000 </v>
   <v>       0.00000000       0.00000000       2.63757202 </v>
  </varray>
  <energy>
   <i name="e_fr_energy">    -65.85704315 </i>
   <i name="e_wo_entrp">    -65.85704315 </i>
   <i name="e_0_energy">     -0.00000000 </i>
  </energy>
  <time name="totalsc">   23.80   23.87</time>
  <eigenvalues>
   <array>
    <dimension dim="1">band</dimension>
    <dimension dim="2">kpoint</dimension>
    <dimension dim="3">spin</dimension>
    <field>eigene</field>
    <field>occ</field>
    <set>
     <set comment="spin 1">
      <set comment="kpoint 1">
       <r>  -14.9507    1.0000 </r>
       <r>  -14.7783    1.0000 </r>
       <r>  -14.6805    1.0000 </r>
       <r>  -12.5598    1.0000 </r>
       <r>  -12.1861    1.0000 </r>
       <r>  -11.9302    1.0000 </r>
       <r>   -8.6786    1.0000 </r>
       <r>   -8.5530    1.0000 </r>
       <r>   -8.4949    1.0000 </r>
       <r>   -6.2974    1.0000 </r>
       <r>   -5.6065    1.0000 </r>
       <r>   -4.8693    1.0000 </r>
       <r>   -4.7797    1.0000 </r>
       <r>   -4.5969    1.0000 </r>
       <r>   -4.2771    1.0000 </r>
       <r>   -4.2129    1.0000 </r>
       <r>   -3.9834    1.0000 </r>
       <r>   -3.8174    1.0000 </r>
       <r>   -3.4845    1.0000 </r>
       <r>   -3.3361    1.0000 </r>
       <r>   -3.2630    1.0000 </r>
       <r>   -2.0653    1.0000 </r>
       <r>   -1.8590    1.0000 </r>
       <r>   -1.6313    1.0000 </r>
       <r>   -1.5240    1.0000 </r>
       <r>   -1.5150    1.0000 </r>
       <r>   -0.8947    1.0000 </r>
       <r>   -0.5858    1.0000 </r>
       <r>    0.1398    1.0000 </r>
       <r>    0.3212    1.0000 </r>
       <r>    1.0482    0.0000 </r>
       <r>    1.3363    0.0000 </r>
       <r>    1.3472    0.0000 </r>
       <r>    1.5975    0.0000 </r>
       <r>    2.0103    0.0000 </r>
       <r>    2.5529    0.0000 </r>
       <r>    2.5996    0.0000 </r>
       <r>    2.8834    0.0000 </r>
       <r>    3.0386    0.0000 </r>
       <r>    3.6341    0.0000 </r>
      </set>
      <set comment="kpoint 2">
       <r>  -14.7685    1.0000 </r>
       <r>  -14.5967    1.0000 </r>
       <r>  -14.4993    1.0000 </r>
       <r>  -12.3711    1.0000 </r>
       <r>  -11.9975    1.0000 </r>
       <r>  -11.7416    1.0000 </r>
       <r>   -8.8435    1.0000 </r>
       <r>   -8.7158    1.0000 </r>
       <r>   -8.6566    1.0000 </r>
       <r>   -6.1422    1.0000 </r>
       <r>   -5.4568    1.0000 </r>
       <r>   -5.0831    1.0000 </r>
       <r>   -4.7347    1.0000 </r>
       <r>   -4.6082    1.0000 </r>
       <r>   -4.4403    1.0000 </r>
       <r>   -4.2441    1.0000 </r>
       <r>   -4.1869    1.0000 </r>
       <r>   -4.0872    1.0000 </r>
       <r>   -4.0623    1.0000 </r>
       <r>   -4.0070    1.0000 </r>
       <r>   -3.8268    1.0000 </r>
       <r>   -2.5811    1.0000 </r>
       <r>   -2.3212    1.0000 </r>
       <r>   -2.1474    1.0000 </r>
       <r>   -1.9802    1.0000 </r>
       <r>   -1.4408    1.0000 </r>
       <r>   -0.8111    1.0000 </r>
       <r>   -0.7058    1.0000 </r>
       <r>    0.2265    1.0000 </r>
       <r>    0.3130    1.0000 </r>
       <r>    1.0983    0.0000 </r>
       <r>    1.4988    0.0000 </r>
       <r>    2.7002    0.0000 </r>
       <r>    2.7038    0.0000 </r>
       <r>    2.7337    0.0000 </r>
       <r>    2.9423    0.0000 </r>
       <r>    2.9464    0.0000 </r>
       <r>    2.9764    0.0000 </r>
       <r>    3.2052    0.0000 </r>
       <r>    3.7442    0.0000 </r>
      </set>
      <set comment="kpoint 3">
       <r>  -14.2271    1.0000 </r>
       <r>  -14.0569    1.0000 </r>
       <r>  -13.9613    1.0000 </r>
       <r>  -11.8080    1.0000 </r>
       <r>  -11.4345    1.0000 </r>
       <r>  -11.1783    1.0000 </r>
       <r>   -9.5469    1.0000 </r>
       <r>   -9.4085    1.0000 </r>
       <r>   -9.3416    1.0000 </r>
       <r>   -6.3488    1.0000 </r>
       <r>   -5.9422    1.0000 </r>
       <r>   -5.6969    1.0000 </r>
       <r>   -5.6257    1.0000 </r>
       <r>   -5.0359    1.0000 </r>
       <r>   -5.0084    1.0000 </r>
       <r>   -4.8458    1.0000 </r>
       <r>   -4.7662    1.0000 </r>
       <r>   -4.3773    1.0000 </r>
       <r>   -3.9955    1.0000 </r>
       <r>   -3.6384    1.0000 </r>
       <r>   -3.3798    1.0000 </r>
       <r>   -2.9491    1.0000 </r>
       <r>   -2.6325    1.0000 </r>
       <r>   -2.3284    1.0000 </r>
       <r>   -1.8781    1.0000 </r>
       <r>   -1.3491    1.0000 </r>
       <r>   -1.1561    1.0000 </r>
       <r>   -0.7324    1.0000 </r>
       <r>   -0.2344    1.0000 </r>
       <r>    0.6526    1.0000 </r>
       <r>    0.8218    0.0000 </r>
       <r>    1.3711    0.0000 </r>
       <r>    1.6383    0.0000 </r>
       <r>    1.8152    0.0000 </r>
       <r>    2.0277    0.0000 </r>
       <r>    3.1883    0.0000 </r>
       <r>    3.2237    0.0000 </r>
       <r>    3.4930    0.0000 </r>
       <r>    3.5616    0.0000 </r>
       <r>    3.7459    0.0000 </r>
      </set>
      <set comment="kpoint 4">
       <r>  -13.3451    1.0000 </r>
       <r>  -13.1780    1.0000 </r>
       <r>  -13.0856    1.0000 </r>
       <r>  -10.8801    1.0000 </r>
       <r>  -10.8045    1.0000 </r>
       <r>  -10.6521    1.0000 </r>
       <r>  -10.5735    1.0000 </r>
       <r>  -10.5066    1.0000 </r>
       <r>  -10.2491    1.0000 </r>
       <r>   -8.0462    1.0000 </r>
       <r>   -7.6641    1.0000 </r>
       <r>   -7.3905    1.0000 </r>
       <r>   -5.0628    1.0000 </r>
       <r>   -4.9493    1.0000 </r>
       <r>   -4.7730    1.0000 </r>
       <r>   -4.6863    1.0000 </r>
       <r>   -4.4920    1.0000 </r>
       <r>   -4.0284    1.0000 </r>
       <r>   -3.3836    1.0000 </r>
       <r>   -3.0844    1.0000 </r>
       <r>   -2.7663    1.0000 </r>
       <r>   -2.7476    1.0000 </r>
       <r>   -2.5478    1.0000 </r>
       <r>   -2.1693    1.0000 </r>
       <r>   -2.0929    1.0000 </r>
       <r>   -1.8193    1.0000 </r>
       <r>   -1.6183    1.0000 </r>
       <r>   -1.0125    1.0000 </r>
       <r>   -0.9996    1.0000 </r>
       <r>   -0.1677    1.0000 </r>
       <r>    1.0871    0.0000 </r>
       <r>    1.4078    0.0000 </r>
       <r>    1.5680    0.0000 </r>
       <r>    1.7042    0.0000 </r>
       <r>    1.7127    0.0000 </r>
       <r>    2.0806    0.0000 </r>
       <r>    2.2174    0.0000 </r>
       <r>    2.3647    0.0000 </r>
       <r>    2.3972    0.0000 </r>
       <r>    2.7386    0.0000 </r>
      </set>
      <set comment="kpoint 5">
       <r>  -12.1671    1.0000 </r>
       <r>  -12.1671    1.0000 </r>
       <r>  -12.0054    1.0000 </r>
       <r>  -12.0054    1.0000 </r>
       <r>  -11.9182    1.0000 </r>
       <r>  -11.9182    1.0000 </r>
       <r>   -9.6091    1.0000 </r>
       <r>   -9.6091    1.0000 </r>
       <r>   -9.2340    1.0000 </r>
       <r>   -9.2340    1.0000 </r>
       <r>   -8.9726    1.0000 </r>
       <r>   -8.9726    1.0000 </r>
       <r>   -4.6682    1.0000 </r>
       <r>   -4.6682    1.0000 </r>
       <r>   -4.3616    1.0000 </r>
       <r>   -4.3616    1.0000 </r>
       <r>   -4.1944    1.0000 </r>
       <r>   -4.1944    1.0000 </r>
       <r>   -2.8888    1.0000 </r>
       <r>   -2.8888    1.0000 </r>
       <r>   -2.8673    1.0000 </r>
       <r>   -2.8673    1.0000 </r>
       <r>   -2.2100    1.0000 </r>
       <r>   -2.2100    1.0000 </r>
       <r>   -2.1699    1.0000 </r>
       <r>   -2.1699    1.0000 </r>
       <r>   -1.5895    1.0000 </r>
       <r>   -1.5895    1.0000 </r>
       <r>   -0.9090    1.0000 </r>
       <r>   -0.9090    1.0000 </r>
       <r>    1.2311    0.0000 </r>
       <r>    1.2311    0.0000 </r>
       <r>    1.6124    0.0000 </r>
       <r>    1.6124    0.0000 </r>
       <r>    1.9300    0.0000 </r>
       <r>    1.9300    0.0000 </r>
       <r>    1.9808    0.0000 </r>
       <r>    1.9808    0.0000 </r>
       <r>    2.2770    0.0000 </r>
       <r>    2.2770    0.0000 </r>
      </set>
      <set comment="kpoint 6">
       <r>  -14.8397    1.0000 </r>
       <r>  -14.6661    1.0000 </r>
       <r>  -14.5660    1.0000 </r>
       <r>  -12.6300    1.0000 </r>
       <r>  -12.2820    1.0000 </r>
       <r>  -12.0548    1.0000 </r>
       <r>   -8.9113    1.0000 </r>
       <r>   -8.7364    1.0000 </r>
       <r>   -8.6212    1.0000 </r>
       <r>   -6.5973    1.0000 </r>
       <r>   -6.0112    1.0000 </r>
       <r>   -5.5012    1.0000 </r>
       <r>   -4.9421    1.0000 </r>
       <r>   -4.4129    1.0000 </r>
       <r>   -3.9374    1.0000 </r>
       <r>   -3.8380    1.0000 </r>
       <r>   -3.4554    1.0000 </r>
       <r>   -3.3968    1.0000 </r>
       <r>   -3.3339    1.0000 </r>
       <r>   -3.2477    1.0000 </r>
       <r>   -3.1728    1.0000 </r>
       <r>   -1.9016    1.0000 </r>
       <r>   -1.6819    1.0000 </r>
       <r>   -1.5734    1.0000 </r>
       <r>   -1.4682    1.0000 </r>
       <r>   -1.4482    1.0000 </r>
       <r>   -0.8514    1.0000 </r>
       <r>   -0.5927    1.0000 </r>
       <r>   -0.1219    1.0000 </r>
       <r>    0.5732    1.0000 </r>
       <r>    0.7602    0.0000 </r>
       <r>    1.5116    0.0000 </r>
       <r>    1.6760    0.0000 </r>
       <r>    1.9119    0.0000 </r>
       <r>    1.9920    0.0000 </r>
       <r>    2.3959    0.0000 </r>
       <r>    2.6143    0.0000 </r>
       <r>    2.8205    0.0000 </r>
       <r>    3.2532    0.0000 </r>
       <r>    3.4213    0.0000 </r>
      </set>
      <set comment="kpoint 7">
       <r>  -14.6583    1.0000 </r>
       <r>  -14.4852    1.0000 </r>
       <r>  -14.3857    1.0000 </r>
       <r>  -12.4450    1.0000 </r>
       <r>  -12.0983    1.0000 </r>
       <r>  -11.8723    1.0000 </r>
       <r>   -8.9981    1.0000 </r>
       <r>   -8.8258    1.0000 </r>
       <r>   -8.7154    1.0000 </r>
       <r>   -6.5036    1.0000 </r>
       <r>   -5.9449    1.0000 </r>
       <r>   -5.4629    1.0000 </r>
       <r>   -5.0429    1.0000 </r>
       <r>   -4.7140    1.0000 </r>
       <r>   -4.4303    1.0000 </r>
       <r>   -4.3784    1.0000 </r>
       <r>   -4.2356    1.0000 </r>
       <r>   -3.6824    1.0000 </r>
       <r>   -3.4650    1.0000 </r>
       <r>   -3.1754    1.0000 </r>
       <r>   -3.0213    1.0000 </r>
       <r>   -2.8492    1.0000 </r>
       <r>   -2.5522    1.0000 </r>
       <r>   -2.3372    1.0000 </r>
       <r>   -1.4444    1.0000 </r>
       <r>   -1.4315    1.0000 </r>
       <r>   -0.8454    1.0000 </r>
       <r>   -0.5879    1.0000 </r>
       <r>   -0.1400    1.0000 </r>
       <r>    0.6000    1.0000 </r>
       <r>    0.8531    0.0000 </r>
       <r>    1.9735    0.0000 </r>
       <r>    2.5233    0.0000 </r>
       <r>    2.7119    0.0000 </r>
       <r>    2.8388    0.0000 </r>
       <r>    2.8727    0.0000 </r>
       <r>    3.0357    0.0000 </r>
       <r>    3.2087    0.0000 </r>
       <r>    3.3109    0.0000 </r>
       <r>    3.7307    0.0000 </r>
      </set>
      <set comment="kpoint 8">
       <r>  -14.1198    1.0000 </r>
       <r>  -13.9485    1.0000 </r>
       <r>  -13.8509    1.0000 </r>
       <r>  -11.9002    1.0000 </r>
       <r>  -11.5602    1.0000 </r>
       <r>  -11.3412    1.0000 </r>
       <r>   -9.5096    1.0000 </r>
       <r>   -9.3362    1.0000 </r>
       <r>   -9.2295    1.0000 </r>
       <r>   -6.7059    1.0000 </r>
       <r>   -6.2874    1.0000 </r>
       <r>   -5.9531    1.0000 </r>
       <r>   -5.4930    1.0000 </r>
       <r>   -5.4815    1.0000 </r>
       <r>   -5.2507    1.0000 </r>
       <r>   -5.1441    1.0000 </r>
       <r>   -4.8072    1.0000 </r>
       <r>   -4.2782    1.0000 </r>
       <r>   -3.4006    1.0000 </r>
       <r>   -3.2806    1.0000 </r>
       <r>   -2.9532    1.0000 </r>
       <r>   -2.9416    1.0000 </r>
       <r>   -2.6582    1.0000 </r>
       <r>   -2.5305    1.0000 </r>
       <r>   -1.7816    1.0000 </r>
       <r>   -1.6145    1.0000 </r>
       <r>   -1.1635    1.0000 </r>
       <r>   -0.8288    1.0000 </r>
       <r>   -0.4078    1.0000 </r>
       <r>    0.4045    1.0000 </r>
       <r>    1.1064    0.0000 </r>
       <r>    1.7228    0.0000 </r>
       <r>    2.0172    0.0000 </r>
       <r>    2.1836    0.0000 </r>
       <r>    2.3035    0.0000 </r>
       <r>    2.7588    0.0000 </r>
       <r>    3.1087    0.0000 </r>
       <r>    3.3824    0.0000 </r>
       <r>    3.4312    0.0000 </r>
       <r>    3.8530    0.0000 </r>
      </set>
      <set comment="kpoint 9">
       <r>  -13.2461    1.0000 </r>
       <r>  -13.0782    1.0000 </r>
       <r>  -12.9841    1.0000 </r>
       <r>  -11.1710    1.0000 </r>
       <r>  -10.9314    1.0000 </r>
       <r>  -10.8082    1.0000 </r>
       <r>  -10.4730    1.0000 </r>
       <r>  -10.1967    1.0000 </r>
       <r>   -9.9945    1.0000 </r>
       <r>   -8.1259    1.0000 </r>
       <r>   -7.7562    1.0000 </r>
       <r>   -7.4957    1.0000 </r>
       <r>   -5.4175    1.0000 </r>
       <r>   -5.2384    1.0000 </r>
       <r>   -5.0559    1.0000 </r>
       <r>   -5.0264    1.0000 </r>
       <r>   -4.5064    1.0000 </r>
       <r>   -4.0981    1.0000 </r>
       <r>   -3.2892    1.0000 </r>
       <r>   -3.1548    1.0000 </r>
       <r>   -2.9694    1.0000 </r>
       <r>   -2.8375    1.0000 </r>
       <r>   -2.6639    1.0000 </r>
       <r>   -2.4456    1.0000 </r>
       <r>   -2.2609    1.0000 </r>
       <r>   -1.8397    1.0000 </r>
       <r>   -1.5805    1.0000 </r>
       <r>   -1.0335    1.0000 </r>
       <r>   -0.8470    1.0000 </r>
       <r>   -0.0905    1.0000 </r>
       <r>    1.3851    0.0000 </r>
       <r>    1.7782    0.0000 </r>
       <r>    1.7932    0.0000 </r>
       <r>    1.9233    0.0000 </r>
       <r>    2.1796    0.0000 </r>
       <r>    2.2341    0.0000 </r>
       <r>    2.3088    0.0000 </r>
       <r>    2.4130    0.0000 </r>
       <r>    2.7223    0.0000 </r>
       <r>    2.7658    0.0000 </r>
      </set>
      <set comment="kpoint 10">
       <r>  -12.0975    1.0000 </r>
       <r>  -12.0975    1.0000 </r>
       <r>  -11.9355    1.0000 </r>
       <r>  -11.9355    1.0000 </r>
       <r>  -11.8478    1.0000 </r>
       <r>  -11.8478    1.0000 </r>
       <r>   -9.6259    1.0000 </r>
       <r>   -9.6259    1.0000 </r>
       <r>   -9.2624    1.0000 </r>
       <r>   -9.2624    1.0000 </r>
       <r>   -9.0144    1.0000 </r>
       <r>   -9.0144    1.0000 </r>
       <r>   -4.8684    1.0000 </r>
       <r>   -4.8684    1.0000 </r>
       <r>   -4.5877    1.0000 </r>
       <r>   -4.5877    1.0000 </r>
       <r>   -4.4078    1.0000 </r>
       <r>   -4.4078    1.0000 </r>
       <r>   -3.5108    1.0000 </r>
       <r>   -3.5108    1.0000 </r>
       <r>   -3.0765    1.0000 </r>
       <r>   -3.0765    1.0000 </r>
       <r>   -2.6097    1.0000 </r>
       <r>   -2.6097    1.0000 </r>
       <r>   -1.9980    1.0000 </r>
       <r>   -1.9980    1.0000 </r>
       <r>   -1.2949    1.0000 </r>
       <r>   -1.2949    1.0000 </r>
       <r>   -0.5453    1.0000 </r>
       <r>   -0.5453    1.0000 </r>
       <r>    1.1800    0.0000 </r>
       <r>    1.1800    0.0000 </r>
       <r>    1.5747    0.0000 </r>
       <r>    1.5747    0.0000 </r>
       <r>    1.8886    0.0000 </r>
       <r>    1.8886    0.0000 </r>
       <r>    2.6038    0.0000 </r>
       <r>    2.6038    0.0000 </r>
       <r>    3.1319    0.0000 </r>
       <r>    3.1725    0.0000 </r>
      </set>
      <set comment="kpoint 11">
       <r>  -14.5186    1.0000 </r>
       <r>  -14.3409    1.0000 </r>
       <r>  -14.2318    1.0000 </r>
       <r>  -12.9011    1.0000 </r>
       <r>  -12.6186    1.0000 </r>
       <r>  -12.4569    1.0000 </r>
       <r>   -9.1544    1.0000 </r>
       <r>   -8.8818    1.0000 </r>
       <r>   -8.6628    1.0000 </r>
       <r>   -7.4405    1.0000 </r>
       <r>   -6.9779    1.0000 </r>
       <r>   -6.5887    1.0000 </r>
       <r>   -4.7492    1.0000 </r>
       <r>   -3.9366    1.0000 </r>
       <r>   -3.1490    1.0000 </r>
       <r>   -3.0427    1.0000 </r>
       <r>   -2.9982    1.0000 </r>
       <r>   -2.9154    1.0000 </r>
       <r>   -2.8503    1.0000 </r>
       <r>   -2.4524    1.0000 </r>
       <r>   -2.4250    1.0000 </r>
       <r>   -2.3677    1.0000 </r>
       <r>   -2.0562    1.0000 </r>
       <r>   -1.8586    1.0000 </r>
       <r>   -1.7708    1.0000 </r>
       <r>   -1.5238    1.0000 </r>
       <r>   -0.5103    1.0000 </r>
       <r>   -0.3162    1.0000 </r>
       <r>    0.2275    1.0000 </r>
       <r>    0.5060    1.0000 </r>
       <r>    1.2777    0.0000 </r>
       <r>    1.6108    0.0000 </r>
       <r>    2.0556    0.0000 </r>
       <r>    2.1611    0.0000 </r>
       <r>    2.2226    0.0000 </r>
       <r>    2.3277    0.0000 </r>
       <r>    2.3571    0.0000 </r>
       <r>    2.8792    0.0000 </r>
       <r>    3.1225    0.0000 </r>
       <r>    3.3074    0.0000 </r>
      </set>
      <set comment="kpoint 12">
       <r>  -14.3394    1.0000 </r>
       <r>  -14.1624    1.0000 </r>
       <r>  -14.0540    1.0000 </r>
       <r>  -12.7244    1.0000 </r>
       <r>  -12.4443    1.0000 </r>
       <r>  -12.2845    1.0000 </r>
       <r>   -9.1375    1.0000 </r>
       <r>   -8.8694    1.0000 </r>
       <r>   -8.6582    1.0000 </r>
       <r>   -7.3634    1.0000 </r>
       <r>   -6.9095    1.0000 </r>
       <r>   -6.5299    1.0000 </r>
       <r>   -4.7225    1.0000 </r>
       <r>   -4.5406    1.0000 </r>
       <r>   -4.3025    1.0000 </r>
       <r>   -4.2034    1.0000 </r>
       <r>   -3.8548    1.0000 </r>
       <r>   -3.1922    1.0000 </r>
       <r>   -3.1139    1.0000 </r>
       <r>   -2.9113    1.0000 </r>
       <r>   -2.6493    1.0000 </r>
       <r>   -2.3642    1.0000 </r>
       <r>   -2.2923    1.0000 </r>
       <r>   -1.9808    1.0000 </r>
       <r>   -1.8396    1.0000 </r>
       <r>   -1.4975    1.0000 </r>
       <r>   -0.6585    1.0000 </r>
       <r>   -0.5825    1.0000 </r>
       <r>   -0.0169    1.0000 </r>
       <r>    0.1183    1.0000 </r>
       <r>    1.6211    0.0000 </r>
       <r>    2.5640    0.0000 </r>
       <r>    2.8208    0.0000 </r>
       <r>    2.8783    0.0000 </r>
       <r>    3.0626    0.0000 </r>
       <r>    3.1901    0.0000 </r>
       <r>    3.2670    0.0000 </r>
       <r>    3.3138    0.0000 </r>
       <r>    3.4110    0.0000 </r>
       <r>    3.5781    0.0000 </r>
      </set>
      <set comment="kpoint 13">
       <r>  -13.8099    1.0000 </r>
       <r>  -13.6350    1.0000 </r>
       <r>  -13.5291    1.0000 </r>
       <r>  -12.2135    1.0000 </r>
       <r>  -11.9445    1.0000 </r>
       <r>  -11.7938    1.0000 </r>
       <r>   -9.3207    1.0000 </r>
       <r>   -9.0672    1.0000 </r>
       <r>   -8.8819    1.0000 </r>
       <r>   -7.4128    1.0000 </r>
       <r>   -7.0120    1.0000 </r>
       <r>   -6.6952    1.0000 </r>
       <r>   -5.7891    1.0000 </r>
       <r>   -5.5633    1.0000 </r>
       <r>   -5.3923    1.0000 </r>
       <r>   -5.1674    1.0000 </r>
       <r>   -4.6949    1.0000 </r>
       <r>   -4.3816    1.0000 </r>
       <r>   -3.8644    1.0000 </r>
       <r>   -3.3157    1.0000 </r>
       <r>   -2.7178    1.0000 </r>
       <r>   -2.4511    1.0000 </r>
       <r>   -2.0758    1.0000 </r>
       <r>   -2.0697    1.0000 </r>
       <r>   -1.9110    1.0000 </r>
       <r>   -1.7914    1.0000 </r>
       <r>   -1.2484    1.0000 </r>
       <r>   -1.1327    1.0000 </r>
       <r>   -0.5786    1.0000 </r>
       <r>   -0.0221    1.0000 </r>
       <r>    1.7653    0.0000 </r>
       <r>    2.1036    0.0000 </r>
       <r>    2.4147    0.0000 </r>
       <r>    2.7025    0.0000 </r>
       <r>    2.7964    0.0000 </r>
       <r>    2.9178    0.0000 </r>
       <r>    3.2078    0.0000 </r>
       <r>    3.4502    0.0000 </r>
       <r>    3.9860    0.0000 </r>
       <r>    4.0396    0.0000 </r>
      </set>
      <set comment="kpoint 14">
       <r>  -12.9624    1.0000 </r>
       <r>  -12.7921    1.0000 </r>
       <r>  -12.6914    1.0000 </r>
       <r>  -11.5427    1.0000 </r>
       <r>  -11.3259    1.0000 </r>
       <r>  -11.2135    1.0000 </r>
       <r>  -10.0162    1.0000 </r>
       <r>   -9.7360    1.0000 </r>
       <r>   -9.5429    1.0000 </r>
       <r>   -8.4000    1.0000 </r>
       <r>   -8.0617    1.0000 </r>
       <r>   -7.8329    1.0000 </r>
       <r>   -5.9151    1.0000 </r>
       <r>   -5.6596    1.0000 </r>
       <r>   -5.4484    1.0000 </r>
       <r>   -5.1835    1.0000 </r>
       <r>   -4.7216    1.0000 </r>
       <r>   -4.3760    1.0000 </r>
       <r>   -4.0190    1.0000 </r>
       <r>   -3.7215    1.0000 </r>
       <r>   -3.3835    1.0000 </r>
       <r>   -3.1869    1.0000 </r>
       <r>   -2.8525    1.0000 </r>
       <r>   -2.4440    1.0000 </r>
       <r>   -2.4338    1.0000 </r>
       <r>   -1.8894    1.0000 </r>
       <r>   -1.4541    1.0000 </r>
       <r>   -1.0017    1.0000 </r>
       <r>   -0.6354    1.0000 </r>
       <r>    0.0931    1.0000 </r>
       <r>    1.4158    0.0000 </r>
       <r>    2.0105    0.0000 </r>
       <r>    2.0760    0.0000 </r>
       <r>    2.3340    0.0000 </r>
       <r>    2.6858    0.0000 </r>
       <r>    3.0788    0.0000 </r>
       <r>    3.4705    0.0000 </r>
       <r>    3.6264    0.0000 </r>
       <r>    3.7345    0.0000 </r>
       <r>    3.8398    0.0000 </r>
      </set>
      <set comment="kpoint 15">
       <r>  -11.9218    1.0000 </r>
       <r>  -11.9218    1.0000 </r>
       <r>  -11.7591    1.0000 </r>
       <r>  -11.7591    1.0000 </r>
       <r>  -11.6694    1.0000 </r>
       <r>  -11.6694    1.0000 </r>
       <r>   -9.6958    1.0000 </r>
       <r>   -9.6958    1.0000 </r>
       <r>   -9.3626    1.0000 </r>
       <r>   -9.3626    1.0000 </r>
       <r>   -9.1478    1.0000 </r>
       <r>   -9.1478    1.0000 </r>
       <r>   -5.1949    1.0000 </r>
       <r>   -5.1949    1.0000 </r>
       <r>   -4.9063    1.0000 </r>
       <r>   -4.9063    1.0000 </r>
       <r>   -4.6783    1.0000 </r>
       <r>   -4.6783    1.0000 </r>
       <r>   -4.1808    1.0000 </r>
       <r>   -4.1808    1.0000 </r>
       <r>   -3.7505    1.0000 </r>
       <r>   -3.7505    1.0000 </r>
       <r>   -3.3634    1.0000 </r>
       <r>   -3.3634    1.0000 </r>
       <r>   -1.9938    1.0000 </r>
       <r>   -1.9938    1.0000 </r>
       <r>   -1.1638    1.0000 </r>
       <r>   -1.1638    1.0000 </r>
       <r>   -0.2910    1.0000 </r>
       <r>   -0.2910    1.0000 </r>
       <r>    1.7910    0.0000 </r>
       <r>    1.7910    0.0000 </r>
       <r>    2.4611    0.0000 </r>
       <r>    2.4611    0.0000 </r>
       <r>    2.8569    0.0000 </r>
       <r>    2.8569    0.0000 </r>
       <r>    2.9306    0.0000 </r>
       <r>    2.9306    0.0000 </r>
       <r>    3.4417    0.0000 </r>
       <r>    3.4417    0.0000 </r>
      </set>
      <set comment="kpoint 16">
       <r>  -14.0360    1.0000 </r>
       <r>  -13.8664    1.0000 </r>
       <r>  -13.7105    1.0000 </r>
       <r>  -13.3703    1.0000 </r>
       <r>  -13.1660    1.0000 </r>
       <r>  -13.0687    1.0000 </r>
       <r>   -8.9590    1.0000 </r>
       <r>   -8.6052    1.0000 </r>
       <r>   -8.3286    1.0000 </r>
       <r>   -8.3079    1.0000 </r>
       <r>   -7.9203    1.0000 </r>
       <r>   -7.5783    1.0000 </r>
       <r>   -4.1922    1.0000 </r>
       <r>   -3.4043    1.0000 </r>
       <r>   -3.2826    1.0000 </r>
       <r>   -2.7977    1.0000 </r>
       <r>   -2.6639    1.0000 </r>
       <r>   -2.5353    1.0000 </r>
       <r>   -2.4801    1.0000 </r>
       <r>   -2.3321    1.0000 </r>
       <r>   -2.3210    1.0000 </r>
       <r>   -2.1710    1.0000 </r>
       <r>   -2.1160    1.0000 </r>
       <r>   -1.6500    1.0000 </r>
       <r>   -1.5407    1.0000 </r>
       <r>   -1.2185    1.0000 </r>
       <r>   -0.8369    1.0000 </r>
       <r>   -0.3686    1.0000 </r>
       <r>    0.0444    1.0000 </r>
       <r>    0.2589    1.0000 </r>
       <r>    1.5720    0.0000 </r>
       <r>    1.5906    0.0000 </r>
       <r>    2.1878    0.0000 </r>
       <r>    2.3375    0.0000 </r>
       <r>    2.4516    0.0000 </r>
       <r>    2.6209    0.0000 </r>
       <r>    3.0131    0.0000 </r>
       <r>    3.1512    0.0000 </r>
       <r>    3.3551    0.0000 </r>
       <r>    3.5351    0.0000 </r>
      </set>
      <set comment="kpoint 17">
       <r>  -13.8600    1.0000 </r>
       <r>  -13.6910    1.0000 </r>
       <r>  -13.5366    1.0000 </r>
       <r>  -13.1977    1.0000 </r>
       <r>  -12.9948    1.0000 </r>
       <r>  -12.8985    1.0000 </r>
       <r>   -8.8883    1.0000 </r>
       <r>   -8.5387    1.0000 </r>
       <r>   -8.2499    1.0000 </r>
       <r>   -8.2449    1.0000 </r>
       <r>   -7.8415    1.0000 </r>
       <r>   -7.5068    1.0000 </r>
       <r>   -4.1525    1.0000 </r>
       <r>   -4.1444    1.0000 </r>
       <r>   -3.9657    1.0000 </r>
       <r>   -3.8210    1.0000 </r>
       <r>   -3.5389    1.0000 </r>
       <r>   -3.5004    1.0000 </r>
       <r>   -3.3331    1.0000 </r>
       <r>   -3.2721    1.0000 </r>
       <r>   -3.1056    1.0000 </r>
       <r>   -2.4013    1.0000 </r>
       <r>   -2.2415    1.0000 </r>
       <r>   -1.5416    1.0000 </r>
       <r>   -1.2450    1.0000 </r>
       <r>   -0.9831    1.0000 </r>
       <r>   -0.5783    1.0000 </r>
       <r>   -0.5465    1.0000 </r>
       <r>   -0.0227    1.0000 </r>
       <r>    0.1620    1.0000 </r>
       <r>    2.2884    0.0000 </r>
       <r>    2.6168    0.0000 </r>
       <r>    2.6867    0.0000 </r>
       <r>    2.8443    0.0000 </r>
       <r>    3.0090    0.0000 </r>
       <r>    3.0745    0.0000 </r>
       <r>    3.1685    0.0000 </r>
       <r>    3.1911    0.0000 </r>
       <r>    3.6625    0.0000 </r>
       <r>    3.7839    0.0000 </r>
      </set>
      <set comment="kpoint 18">
       <r>  -13.3434    1.0000 </r>
       <r>  -13.1768    1.0000 </r>
       <r>  -13.0280    1.0000 </r>
       <r>  -12.6979    1.0000 </r>
       <r>  -12.5009    1.0000 </r>
       <r>  -12.4080    1.0000 </r>
       <r>   -8.8766    1.0000 </r>
       <r>   -8.5530    1.0000 </r>
       <r>   -8.3046    1.0000 </r>
       <r>   -8.1989    1.0000 </r>
       <r>   -7.8299    1.0000 </r>
       <r>   -7.5426    1.0000 </r>
       <r>   -5.6656    1.0000 </r>
       <r>   -5.4451    1.0000 </r>
       <r>   -5.2750    1.0000 </r>
       <r>   -5.2416    1.0000 </r>
       <r>   -5.0053    1.0000 </r>
       <r>   -4.8160    1.0000 </r>
       <r>   -3.7421    1.0000 </r>
       <r>   -3.2154    1.0000 </r>
       <r>   -2.9045    1.0000 </r>
       <r>   -2.4988    1.0000 </r>
       <r>   -2.2233    1.0000 </r>
       <r>   -1.9221    1.0000 </r>
       <r>   -1.8617    1.0000 </r>
       <r>   -1.8195    1.0000 </r>
       <r>   -1.2021    1.0000 </r>
       <r>   -1.1448    1.0000 </r>
       <r>   -0.4855    1.0000 </r>
       <r>   -0.2634    1.0000 </r>
       <r>    2.2765    0.0000 </r>
       <r>    2.7893    0.0000 </r>
       <r>    2.8067    0.0000 </r>
       <r>    3.0893    0.0000 </r>
       <r>    3.1209    0.0000 </r>
       <r>    3.4931    0.0000 </r>
       <r>    3.7813    0.0000 </r>
       <r>    3.8555    0.0000 </r>
       <r>    4.0366    0.0000 </r>
       <r>    4.3873    0.0000 </r>
      </set>
      <set comment="kpoint 19">
       <r>  -12.5424    1.0000 </r>
       <r>  -12.3821    1.0000 </r>
       <r>  -12.2463    1.0000 </r>
       <r>  -11.9801    1.0000 </r>
       <r>  -11.8025    1.0000 </r>
       <r>  -11.7180    1.0000 </r>
       <r>   -9.4686    1.0000 </r>
       <r>   -9.1909    1.0000 </r>
       <r>   -8.9825    1.0000 </r>
       <r>   -8.8654    1.0000 </r>
       <r>   -8.5683    1.0000 </r>
       <r>   -8.3715    1.0000 </r>
       <r>   -5.9708    1.0000 </r>
       <r>   -5.6688    1.0000 </r>
       <r>   -5.6112    1.0000 </r>
       <r>   -5.4172    1.0000 </r>
       <r>   -5.2519    1.0000 </r>
       <r>   -4.9650    1.0000 </r>
       <r>   -4.1201    1.0000 </r>
       <r>   -3.8464    1.0000 </r>
       <r>   -3.5546    1.0000 </r>
       <r>   -3.4038    1.0000 </r>
       <r>   -3.2105    1.0000 </r>
       <r>   -2.9081    1.0000 </r>
       <r>   -2.3633    1.0000 </r>
       <r>   -2.0422    1.0000 </r>
       <r>   -1.4118    1.0000 </r>
       <r>   -1.1041    1.0000 </r>
       <r>   -0.5193    1.0000 </r>
       <r>   -0.1505    1.0000 </r>
       <r>    1.8409    0.0000 </r>
       <r>    2.3949    0.0000 </r>
       <r>    2.8086    0.0000 </r>
       <r>    3.1252    0.0000 </r>
       <r>    3.4952    0.0000 </r>
       <r>    3.5957    0.0000 </r>
       <r>    3.6673    0.0000 </r>
       <r>    4.1202    0.0000 </r>
       <r>    4.3725    0.0000 </r>
       <r>    4.5082    0.0000 </r>
      </set>
      <set comment="kpoint 20">
       <r>  -11.7529    1.0000 </r>
       <r>  -11.7529    1.0000 </r>
       <r>  -11.5895    1.0000 </r>
       <r>  -11.5895    1.0000 </r>
       <r>  -11.4977    1.0000 </r>
       <r>  -11.4977    1.0000 </r>
       <r>   -9.7963    1.0000 </r>
       <r>   -9.7963    1.0000 </r>
       <r>   -9.4911    1.0000 </r>
       <r>   -9.4911    1.0000 </r>
       <r>   -9.3052    1.0000 </r>
       <r>   -9.3052    1.0000 </r>
       <r>   -5.2125    1.0000 </r>
       <r>   -5.2125    1.0000 </r>
       <r>   -4.9128    1.0000 </r>
       <r>   -4.9128    1.0000 </r>
       <r>   -4.7762    1.0000 </r>
       <r>   -4.7762    1.0000 </r>
       <r>   -4.6007    1.0000 </r>
       <r>   -4.6007    1.0000 </r>
       <r>   -4.4180    1.0000 </r>
       <r>   -4.4180    1.0000 </r>
       <r>   -4.0966    1.0000 </r>
       <r>   -4.0966    1.0000 </r>
       <r>   -2.0058    1.0000 </r>
       <r>   -2.0058    1.0000 </r>
       <r>   -1.1171    1.0000 </r>
       <r>   -1.1171    1.0000 </r>
       <r>   -0.2004    1.0000 </r>
       <r>   -0.2004    1.0000 </r>
       <r>    1.7155    0.0000 </r>
       <r>    1.7155    0.0000 </r>
       <r>    2.7034    0.0000 </r>
       <r>    2.7034    0.0000 </r>
       <r>    3.7472    0.0000 </r>
       <r>    3.7472    0.0000 </r>
       <r>    4.2670    0.0000 </r>
       <r>    4.2670    0.0000 </r>
       <r>    4.4884    0.0000 </r>
       <r>    4.4917    0.0000 </r>
      </set>
     </set>
    </set>
   </array>
  </eigenvalues>
  <separator name="orbital magnetization" >
   <v name="MAGDIPOLOUT">      0.00000000      0.00000000      0.00000000</v>
  </separator>
  <dos>
   <i name="efermi">      0.69511173 </i>
   <total>
    <array>
     <dimension dim="1">gridpoints</dimension>
     <dimension dim="2">spin</dimension>
     <field>energy</field>
     <field>total</field>
     <field>integrated</field>
     <set>
      <set comment="spin 1">
       <r>   -15.9236     0.0000     0.0000 </r>
       <r>   -15.9129     0.0000     0.0000 </r>
       <r>   -15.9022     0.0000     0.0000 </r>
       <r>   -15.8915     0.0000     0.0000 </r>
       <r>   -15.8808     0.0000     0.0000 </r>
       <r>   -15.8701     0.0000     0.0000 </r>
       <r>   -15.8594     0.0000     0.0000 </r>
       <r>   -15.8486     0.0000     0.0000 </r>
       <r>   -15.8379     0.0000     0.0000 </r>
       <r>   -15.8272     0.0000     0.0000 </r>
       <r>   -15.8165     0.0000     0.0000 </r>
       <r>   -15.8058     0.0000     0.0000 </r>
       <r>   -15.7951     0.0000     0.0000 </r>
       <r>   -15.7844     0.0000     0.0000 </r>
       <r>   -15.7737     0.0000     0.0000 </r>
       <r>   -15.7630     0.0000     0.0000 </r>
       <r>   -15.7523     0.0000     0.0000 </r>
       <r>   -15.7416     0.0000     0.0000 </r>
       <r>   -15.7309     0.0000     0.0000 </r>
       <r>   -15.7202     0.0000     0.0000 </r>
       <r>   -15.7094     0.0000     0.0000 </r>
       <r>   -15.6987     0.0000     0.0000 </r>
       <r>   -15.6880     0.0000     0.0000 </r>
       <r>   -15.6773     0.0000     0.0000 </r>
       <r>   -15.6666     0.0000     0.0000 </r>
       <r>   -15.6559     0.0000     0.0000 </r>
       <r>   -15.6452     0.0000     0.0000 </r>
       <r>   -15.6345     0.0000     0.0000 </r>
       <r>   -15.6238     0.0000     0.0000 </r>
       <r>   -15.6131     0.0000     0.0000 </r>
       <r>   -15.6024     0.0000     0.0000 </r>
       <r>   -15.5917     0.0000     0.0000 </r>
       <r>   -15.5810     0.0000     0.0000 </r>
       <r>   -15.5702     0.0000     0.0000 </r>
       <r>   -15.5595     0.0000     0.0000 </r>
       <r>   -15.5488     0.0000     0.0000 </r>
       <r>   -15.5381     0.0000     0.0000 </r>
       <r>   -15.5274     0.0000     0.0000 </r>
       <r>   -15.5167     0.0000     0.0000 </r>
       <r>   -15.5060     0.0000     0.0000 </r>
       <r>   -15.4953     0.0000     0.0000 </r>
       <r>   -15.4846     0.0000     0.0000 </r>
       <r>   -15.4739     0.0000     0.0000 </r>
       <r>   -15.4632     0.0000     0.0000 </r>
       <r>   -15.4525     0.0000     0.0000 </r>
       <r>   -15.4418     0.0000     0.0000 </r>
       <r>   -15.4310     0.0000     0.0000 </r>
       <r>   -15.4203     0.0000     0.0000 </r>
       <r>   -15.4096     0.0000     0.0000 </r>
       <r>   -15.3989     0.0000     0.0000 </r>
       <r>   -15.3882     0.0000     0.0000 </r>
       <r>   -15.3775     0.0000     0.0000 </r>
       <r>   -15.3668     0.0000     0.0000 </r>
       <r>   -15.3561     0.0000     0.0000 </r>
       <r>   -15.3454     0.0000     0.0000 </r>
       <r>   -15.3347     0.0000     0.0000 </r>
       <r>   -15.3240     0.0000     0.0000 </r>
       <r>   -15.3133     0.0000     0.0000 </r>
       <r>   -15.3026     0.0000     0.0000 </r>
       <r>   -15.2918     0.0000     0.0000 </r>
       <r>   -15.2811     0.0000     0.0000 </r>
       <r>   -15.2704     0.0000     0.0000 </r>
       <r>   -15.2597     0.0000     0.0000 </r>
       <r>   -15.2490     0.0000     0.0000 </r>
       <r>   -15.2383     0.0000     0.0000 </r>
       <r>   -15.2276     0.0000     0.0000 </r>
       <r>   -15.2169     0.0000     0.0000 </r>
       <r>   -15.2062     0.0000     0.0000 </r>
       <r>   -15.1955     0.0000     0.0000 </r>
       <r>   -15.1848     0.0000     0.0000 </r>
       <r>   -15.1741     0.0000     0.0000 </r>
       <r>   -15.1634     0.0000     0.0000 </r>
       <r>   -15.1526     0.0000     0.0000 </r>
       <r>   -15.1419     0.0000     0.0000 </r>
       <r>   -15.1312     0.0000     0.0000 </r>
       <r>   -15.1205     0.0000     0.0000 </r>
       <r>   -15.1098     0.0000     0.0000 </r>
       <r>   -15.0991     0.0000     0.0000 </r>
       <r>   -15.0884     0.0000     0.0000 </r>
       <r>   -15.0777     0.0000     0.0000 </r>
       <r>   -15.0670     0.0000     0.0000 </r>
       <r>   -15.0563     0.0000     0.0000 </r>
       <r>   -15.0456     0.0000     0.0000 </r>
       <r>   -15.0349     0.0000     0.0000 </r>
       <r>   -15.0242     0.0000     0.0000 </r>
       <r>   -15.0134     0.0000     0.0000 </r>
       <r>   -15.0027     0.0000     0.0000 </r>
       <r>   -14.9920     0.0000     0.0000 </r>
       <r>   -14.9813     0.0000     0.0000 </r>
       <r>   -14.9706     0.0079     0.0001 </r>
       <r>   -14.9599     0.3105     0.0034 </r>
       <r>   -14.9492     1.6221     0.0208 </r>
       <r>   -14.9385     1.2526     0.0342 </r>
       <r>   -14.9278     0.1402     0.0357 </r>
       <r>   -14.9171     0.0020     0.0357 </r>
       <r>   -14.9064     0.0000     0.0357 </r>
       <r>   -14.8957     0.0000     0.0357 </r>
       <r>   -14.8850     0.0000     0.0357 </r>
       <r>   -14.8742     0.0000     0.0357 </r>
       <r>   -14.8635     0.0025     0.0357 </r>
       <r>   -14.8528     0.2076     0.0380 </r>
       <r>   -14.8421     2.2250     0.0618 </r>
       <r>   -14.8314     3.4275     0.0985 </r>
       <r>   -14.8207     0.7838     0.1069 </r>
       <r>   -14.8100     0.0242     0.1071 </r>
       <r>   -14.7993     0.0052     0.1072 </r>
       <r>   -14.7886     0.2561     0.1099 </r>
       <r>   -14.7779     2.1069     0.1325 </r>
       <r>   -14.7672     4.5996     0.1818 </r>
       <r>   -14.7565     2.7367     0.2111 </r>
       <r>   -14.7457     0.2972     0.2142 </r>
       <r>   -14.7350     0.0044     0.2143 </r>
       <r>   -14.7243     0.0000     0.2143 </r>
       <r>   -14.7136     0.0000     0.2143 </r>
       <r>   -14.7029     0.0025     0.2143 </r>
       <r>   -14.6922     0.1613     0.2160 </r>
       <r>   -14.6815     1.4194     0.2312 </r>
       <r>   -14.6708     3.6529     0.2704 </r>
       <r>   -14.6601     8.7429     0.3640 </r>
       <r>   -14.6494     7.9120     0.4487 </r>
       <r>   -14.6387     1.4189     0.4639 </r>
       <r>   -14.6280     0.0376     0.4643 </r>
       <r>   -14.6173     0.0120     0.4644 </r>
       <r>   -14.6065     0.5281     0.4701 </r>
       <r>   -14.5958     3.1025     0.5033 </r>
       <r>   -14.5851     2.7073     0.5323 </r>
       <r>   -14.5744     1.0993     0.5440 </r>
       <r>   -14.5637     3.4115     0.5806 </r>
       <r>   -14.5530     2.2621     0.6048 </r>
       <r>   -14.5423     0.2188     0.6071 </r>
       <r>   -14.5316     0.2199     0.6095 </r>
       <r>   -14.5209     2.2744     0.6339 </r>
       <r>   -14.5102     3.8171     0.6747 </r>
       <r>   -14.4995     3.9137     0.7166 </r>
       <r>   -14.4888     6.7492     0.7889 </r>
       <r>   -14.4781     7.6052     0.8703 </r>
       <r>   -14.4673     2.0254     0.8920 </r>
       <r>   -14.4566     0.0777     0.8929 </r>
       <r>   -14.4459     0.0004     0.8929 </r>
       <r>   -14.4352     0.0000     0.8929 </r>
       <r>   -14.4245     0.0000     0.8929 </r>
       <r>   -14.4138     0.0005     0.8929 </r>
       <r>   -14.4031     0.0936     0.8939 </r>
       <r>   -14.3924     2.2208     0.9176 </r>
       <r>   -14.3817     7.2508     0.9953 </r>
       <r>   -14.3710     3.5307     1.0331 </r>
       <r>   -14.3603     0.2855     1.0361 </r>
       <r>   -14.3496     1.7192     1.0546 </r>
       <r>   -14.3389     9.4624     1.1559 </r>
       <r>   -14.3281     7.8205     1.2396 </r>
       <r>   -14.3174     0.9544     1.2498 </r>
       <r>   -14.3067     0.0153     1.2500 </r>
       <r>   -14.2960     0.0000     1.2500 </r>
       <r>   -14.2853     0.0000     1.2500 </r>
       <r>   -14.2746     0.0000     1.2500 </r>
       <r>   -14.2639     0.0000     1.2500 </r>
       <r>   -14.2532     0.0088     1.2501 </r>
       <r>   -14.2425     0.5196     1.2557 </r>
       <r>   -14.2318     4.4861     1.3037 </r>
       <r>   -14.2211     6.5710     1.3741 </r>
       <r>   -14.2104     1.6874     1.3921 </r>
       <r>   -14.1997     0.0683     1.3929 </r>
       <r>   -14.1889     0.0016     1.3929 </r>
       <r>   -14.1782     0.1684     1.3947 </r>
       <r>   -14.1675     2.9729     1.4265 </r>
       <r>   -14.1568     7.3477     1.5052 </r>
       <r>   -14.1461     2.7126     1.5342 </r>
       <r>   -14.1354     0.3226     1.5377 </r>
       <r>   -14.1247     3.0972     1.5708 </r>
       <r>   -14.1140     7.3370     1.6494 </r>
       <r>   -14.1033     2.5953     1.6772 </r>
       <r>   -14.0926     0.1274     1.6786 </r>
       <r>   -14.0819     0.0027     1.6786 </r>
       <r>   -14.0712     0.2457     1.6812 </r>
       <r>   -14.0605     4.2213     1.7264 </r>
       <r>   -14.0497    11.0329     1.8446 </r>
       <r>   -14.0390     6.4810     1.9140 </r>
       <r>   -14.0283     3.7775     1.9544 </r>
       <r>   -14.0176     0.8920     1.9640 </r>
       <r>   -14.0069     0.0306     1.9643 </r>
       <r>   -13.9962     0.0001     1.9643 </r>
       <r>   -13.9855     0.0021     1.9643 </r>
       <r>   -13.9748     0.1865     1.9663 </r>
       <r>   -13.9641     2.3044     1.9910 </r>
       <r>   -13.9534     6.5735     2.0614 </r>
       <r>   -13.9427     8.1877     2.1490 </r>
       <r>   -13.9320     2.6291     2.1772 </r>
       <r>   -13.9213     0.1281     2.1786 </r>
       <r>   -13.9105     0.0008     2.1786 </r>
       <r>   -13.8998     0.0000     2.1786 </r>
       <r>   -13.8891     0.0046     2.1786 </r>
       <r>   -13.8784     0.3554     2.1824 </r>
       <r>   -13.8677     4.4331     2.2299 </r>
       <r>   -13.8570    12.7040     2.3659 </r>
       <r>   -13.8463    12.0613     2.4951 </r>
       <r>   -13.8356     3.5919     2.5335 </r>
       <r>   -13.8249     0.4260     2.5381 </r>
       <r>   -13.8142     3.3898     2.5744 </r>
       <r>   -13.8035     7.2869     2.6524 </r>
       <r>   -13.7928     2.3381     2.6775 </r>
       <r>   -13.7821     0.1035     2.6786 </r>
       <r>   -13.7713     0.0006     2.6786 </r>
       <r>   -13.7606     0.0000     2.6786 </r>
       <r>   -13.7499     0.0000     2.6786 </r>
       <r>   -13.7392     0.0002     2.6786 </r>
       <r>   -13.7285     0.0359     2.6790 </r>
       <r>   -13.7178     0.9684     2.6893 </r>
       <r>   -13.7071     3.7110     2.7291 </r>
       <r>   -13.6964     4.7623     2.7801 </r>
       <r>   -13.6857     7.5039     2.8604 </r>
       <r>   -13.6750     2.8729     2.8912 </r>
       <r>   -13.6643     0.1569     2.8928 </r>
       <r>   -13.6536     0.0592     2.8935 </r>
       <r>   -13.6429     1.7310     2.9120 </r>
       <r>   -13.6321     6.9902     2.9869 </r>
       <r>   -13.6214     4.1972     3.0318 </r>
       <r>   -13.6107     0.3607     3.0357 </r>
       <r>   -13.6000     0.0039     3.0357 </r>
       <r>   -13.5893     0.0000     3.0357 </r>
       <r>   -13.5786     0.0000     3.0357 </r>
       <r>   -13.5679     0.0001     3.0357 </r>
       <r>   -13.5572     0.0248     3.0360 </r>
       <r>   -13.5465     1.1611     3.0484 </r>
       <r>   -13.5358     8.4363     3.1387 </r>
       <r>   -13.5251    12.5918     3.2736 </r>
       <r>   -13.5144     4.2108     3.3187 </r>
       <r>   -13.5037     0.2559     3.3214 </r>
       <r>   -13.4929     0.0021     3.3214 </r>
       <r>   -13.4822     0.0000     3.3214 </r>
       <r>   -13.4715     0.0000     3.3214 </r>
       <r>   -13.4608     0.0000     3.3214 </r>
       <r>   -13.4501     0.0000     3.3214 </r>
       <r>   -13.4394     0.0000     3.3214 </r>
       <r>   -13.4287     0.0000     3.3214 </r>
       <r>   -13.4180     0.0000     3.3214 </r>
       <r>   -13.4073     0.0000     3.3214 </r>
       <r>   -13.3966     0.0007     3.3214 </r>
       <r>   -13.3859     0.0922     3.3224 </r>
       <r>   -13.3752     1.5527     3.3390 </r>
       <r>   -13.3645     3.7082     3.3788 </r>
       <r>   -13.3537     2.9575     3.4104 </r>
       <r>   -13.3430     9.4299     3.5114 </r>
       <r>   -13.3323     7.9300     3.5963 </r>
       <r>   -13.3216     0.9953     3.6070 </r>
       <r>   -13.3109     0.0165     3.6071 </r>
       <r>   -13.3002     0.0000     3.6071 </r>
       <r>   -13.2895     0.0000     3.6071 </r>
       <r>   -13.2788     0.0000     3.6071 </r>
       <r>   -13.2681     0.0124     3.6073 </r>
       <r>   -13.2574     0.7220     3.6150 </r>
       <r>   -13.2467     5.4926     3.6738 </r>
       <r>   -13.2360     6.0973     3.7391 </r>
       <r>   -13.2253     0.9963     3.7498 </r>
       <r>   -13.2145     0.1358     3.7512 </r>
       <r>   -13.2038     2.4595     3.7776 </r>
       <r>   -13.1931     7.5605     3.8585 </r>
       <r>   -13.1824     7.6790     3.9407 </r>
       <r>   -13.1717    12.5236     4.0748 </r>
       <r>   -13.1610     7.8544     4.1589 </r>
       <r>   -13.1503     1.7425     4.1776 </r>
       <r>   -13.1396     0.0895     4.1786 </r>
       <r>   -13.1289     0.0006     4.1786 </r>
       <r>   -13.1182     0.0000     4.1786 </r>
       <r>   -13.1075     0.0067     4.1786 </r>
       <r>   -13.0968     0.4279     4.1832 </r>
       <r>   -13.0861     4.5285     4.2317 </r>
       <r>   -13.0753    11.1172     4.3508 </r>
       <r>   -13.0646     8.3434     4.4401 </r>
       <r>   -13.0539     2.1356     4.4630 </r>
       <r>   -13.0432     0.3284     4.4665 </r>
       <r>   -13.0325     3.2573     4.5014 </r>
       <r>   -13.0218     7.3146     4.5797 </r>
       <r>   -13.0111     2.5937     4.6075 </r>
       <r>   -13.0004     2.9865     4.6394 </r>
       <r>   -12.9897    10.0864     4.7474 </r>
       <r>   -12.9790    10.4257     4.8591 </r>
       <r>   -12.9683     5.6750     4.9198 </r>
       <r>   -12.9576     7.4991     5.0001 </r>
       <r>   -12.9469     3.1337     5.0337 </r>
       <r>   -12.9361     0.1879     5.0357 </r>
       <r>   -12.9254     0.0042     5.0357 </r>
       <r>   -12.9147     0.3204     5.0392 </r>
       <r>   -12.9040     4.8279     5.0909 </r>
       <r>   -12.8933    10.8502     5.2071 </r>
       <r>   -12.8826     3.8154     5.2479 </r>
       <r>   -12.8719     0.1943     5.2500 </r>
       <r>   -12.8612     0.0013     5.2500 </r>
       <r>   -12.8505     0.0000     5.2500 </r>
       <r>   -12.8398     0.0000     5.2500 </r>
       <r>   -12.8291     0.0000     5.2500 </r>
       <r>   -12.8184     0.0014     5.2500 </r>
       <r>   -12.8077     0.1857     5.2520 </r>
       <r>   -12.7969     3.1152     5.2854 </r>
       <r>   -12.7862     7.3348     5.3639 </r>
       <r>   -12.7755     2.5779     5.3915 </r>
       <r>   -12.7648     0.1257     5.3928 </r>
       <r>   -12.7541     0.0009     5.3929 </r>
       <r>   -12.7434     0.0469     5.3934 </r>
       <r>   -12.7327     1.5402     5.4099 </r>
       <r>   -12.7220     6.8339     5.4830 </r>
       <r>   -12.7113     4.9111     5.5356 </r>
       <r>   -12.7006     6.0027     5.5999 </r>
       <r>   -12.6899    13.4640     5.7441 </r>
       <r>   -12.6792     6.6179     5.8149 </r>
       <r>   -12.6685     0.5997     5.8213 </r>
       <r>   -12.6577     0.0082     5.8214 </r>
       <r>   -12.6470     0.0524     5.8220 </r>
       <r>   -12.6363     1.2152     5.8350 </r>
       <r>   -12.6256     4.6803     5.8851 </r>
       <r>   -12.6149     5.2833     5.9417 </r>
       <r>   -12.6042     1.9711     5.9628 </r>
       <r>   -12.5935     0.1376     5.9643 </r>
       <r>   -12.5828     0.0032     5.9643 </r>
       <r>   -12.5721     0.1364     5.9658 </r>
       <r>   -12.5614     1.2868     5.9795 </r>
       <r>   -12.5507     3.1904     6.0137 </r>
       <r>   -12.5400     7.1644     6.0904 </r>
       <r>   -12.5293     4.4737     6.1383 </r>
       <r>   -12.5185     0.5027     6.1437 </r>
       <r>   -12.5078     2.1061     6.1663 </r>
       <r>   -12.4971     7.2044     6.2434 </r>
       <r>   -12.4864     3.6823     6.2828 </r>
       <r>   -12.4757     0.2929     6.2860 </r>
       <r>   -12.4650     0.8673     6.2953 </r>
       <r>   -12.4543     5.7135     6.3564 </r>
       <r>   -12.4436    14.8142     6.5151 </r>
       <r>   -12.4329    10.6527     6.6291 </r>
       <r>   -12.4222     1.5624     6.6459 </r>
       <r>   -12.4115     3.8791     6.6874 </r>
       <r>   -12.4008     7.1961     6.7644 </r>
       <r>   -12.3901     3.6810     6.8039 </r>
       <r>   -12.3793     7.8277     6.8877 </r>
       <r>   -12.3686     7.7009     6.9701 </r>
       <r>   -12.3579     2.5795     6.9978 </r>
       <r>   -12.3472     0.2073     7.0000 </r>
       <r>   -12.3365     0.0024     7.0000 </r>
       <r>   -12.3258     0.0000     7.0000 </r>
       <r>   -12.3151     0.0001     7.0000 </r>
       <r>   -12.3044     0.0382     7.0004 </r>
       <r>   -12.2937     1.5917     7.0175 </r>
       <r>   -12.2830     9.1589     7.1155 </r>
       <r>   -12.2723     8.1042     7.2023 </r>
       <r>   -12.2616     1.3039     7.2163 </r>
       <r>   -12.2509     3.2754     7.2513 </r>
       <r>   -12.2401     7.3151     7.3297 </r>
       <r>   -12.2294     2.6152     7.3577 </r>
       <r>   -12.2187     3.0347     7.3902 </r>
       <r>   -12.2080     7.3540     7.4689 </r>
       <r>   -12.1973     2.9440     7.5004 </r>
       <r>   -12.1866     1.5416     7.5169 </r>
       <r>   -12.1759     2.2078     7.5406 </r>
       <r>   -12.1652     3.5738     7.5788 </r>
       <r>   -12.1545     2.3922     7.6045 </r>
       <r>   -12.1438     0.2473     7.6071 </r>
       <r>   -12.1331     0.0033     7.6071 </r>
       <r>   -12.1224     0.0074     7.6072 </r>
       <r>   -12.1117     0.6889     7.6146 </r>
       <r>   -12.1009     8.2112     7.7025 </r>
       <r>   -12.0902    14.0548     7.8530 </r>
       <r>   -12.0795     3.5961     7.8915 </r>
       <r>   -12.0688     0.2807     7.8945 </r>
       <r>   -12.0581     1.9674     7.9156 </r>
       <r>   -12.0474     3.5552     7.9537 </r>
       <r>   -12.0367     0.9569     7.9639 </r>
       <r>   -12.0260     0.0471     7.9644 </r>
       <r>   -12.0153     0.5653     7.9705 </r>
       <r>   -12.0046     4.1152     8.0145 </r>
       <r>   -11.9939     6.6173     8.0854 </r>
       <r>   -11.9832     6.3424     8.1533 </r>
       <r>   -11.9725     7.1793     8.2302 </r>
       <r>   -11.9617     1.8878     8.2504 </r>
       <r>   -11.9510     2.5103     8.2773 </r>
       <r>   -11.9403    10.7133     8.3920 </r>
       <r>   -11.9296    14.4221     8.5464 </r>
       <r>   -11.9189    13.9157     8.6954 </r>
       <r>   -11.9082     9.2623     8.7946 </r>
       <r>   -11.8975     7.8276     8.8784 </r>
       <r>   -11.8868     4.5686     8.9273 </r>
       <r>   -11.8761     4.0515     8.9707 </r>
       <r>   -11.8654     7.2968     9.0488 </r>
       <r>   -11.8547     4.2174     9.0940 </r>
       <r>   -11.8440     7.2921     9.1721 </r>
       <r>   -11.8333     3.6747     9.2114 </r>
       <r>   -11.8225     0.4274     9.2160 </r>
       <r>   -11.8118     3.1151     9.2494 </r>
       <r>   -11.8011    11.9782     9.3776 </r>
       <r>   -11.7904    13.2314     9.5193 </r>
       <r>   -11.7797     4.5715     9.5682 </r>
       <r>   -11.7690     1.5070     9.5844 </r>
       <r>   -11.7583     9.0391     9.6812 </r>
       <r>   -11.7476    14.0158     9.8312 </r>
       <r>   -11.7369     7.2852     9.9093 </r>
       <r>   -11.7262     3.3610     9.9452 </r>
       <r>   -11.7155     6.9861    10.0201 </r>
       <r>   -11.7048     4.3916    10.0671 </r>
       <r>   -11.6941     0.4052    10.0714 </r>
       <r>   -11.6833     0.3282    10.0749 </r>
       <r>   -11.6726     4.0065    10.1178 </r>
       <r>   -11.6619     7.0793    10.1936 </r>
[...]
        <r>  0.0079  0.0037  0.0092  0.0143  0.0000  0.0000  0.0000  0.0000  0.0000 </r>
        <r>  0.0187  0.0088  0.0217  0.0061  0.0000  0.0000  0.0000  0.0000  0.0000 </r>
        <r>  0.0079  0.0037  0.0092  0.0143  0.0000  0.0000  0.0000  0.0000  0.0000 </r>
        <r>  0.0187  0.0088  0.0217  0.0061  0.0000  0.0000  0.0000  0.0000  0.0000 </r>
        <r>  0.0131  0.0060  0.0129  0.0036  0.0000  0.0000  0.0000  0.0000  0.0000 </r>
        <r>  0.0055  0.0026  0.0055  0.0085  0.0000  0.0000  0.0000  0.0000  0.0000 </r>
        <r>  0.0141  0.0081  0.0190  0.0054  0.0000  0.0000  0.0000  0.0000  0.0000 </r>
        <r>  0.0060  0.0034  0.0080  0.0128  0.0000  0.0000  0.0000  0.0000  0.0000 </r>
       </set>
       <set comment="band 25">
        <r>  0.0131  0.0272  0.0120  0.0009  0.0000  0.0000  0.0000  0.0000  0.0000 </r>
        <r>  0.0013  0.0028  0.0012  0.0091  0.0000  0.0000  0.0000  0.0000  0.0000 </r>
        <r>  0.0001  0.0307  0.0030  0.0004  0.0000  0.0000  0.0000  0.0000  0.0000 </r>
        <r>  0.0000  0.0031  0.0003  0.0039  0.0000  0.0000  0.0000  0.0000  0.0000 </r>
        <r>  0.0007  0.0063  0.0015  0.0133  0.0000  0.0000  0.0000  0.0000  0.0000 </r>
        <r>  0.0072  0.0619  0.0144  0.0013  0.0000  0.0000  0.0000  0.0000  0.0000 </r>
        <r>  0.0007  0.0063  0.0015  0.0133  0.0000  0.0000  0.0000  0.0000  0.0000 </r>
        <r>  0.0072  0.0619  0.0144  0.0013  0.0000  0.0000  0.0000  0.0000  0.0000 </r>
        <r>  0.0001  0.0307  0.0030  0.0004  0.0000  0.0000  0.0000  0.0000  0.0000 </r>
        <r>  0.0000  0.0031  0.0003  0.0039  0.0000  0.0000  0.0000  0.0000  0.0000 </r>
        <r>  0.0131  0.0272  0.0120  0.0009  0.0000  0.0000  0.0000  0.0000  0.0000 </r>
        <r>  0.0013  0.0028  0.0012  0.0091  0.0000  0.0000  0.0000  0.0000  0.0000 </r>
       </set>
       <set comment="band 26">
        <r>  0.0013  0.0028  0.0012  0.0091  0.0000  0.0000  0.0000  0.0000  0.0000 </r>
        <r>  0.0131  0.0272  0.0120  0.0009  0.0000  0.0000  0.0000  0.0000  0.0000 </r>
        <r>  0.0000  0.0031  0.0003  0.0039  0.0000  0.0000  0.0000  0.0000  0.0000 </r>
        <r>  0.0001  0.0307  0.0030  0.0004  0.0000  0.0000  0.0000  0.0000  0.0000 </r>
        <r>  0.0072  0.0619  0.0144  0.0013  0.0000  0.0000  0.0000  0.0000  0.0000 </r>
        <r>  0.0007  0.0063  0.0015  0.0133  0.0000  0.0000  0.0000  0.0000  0.0000 </r>
        <r>  0.0072  0.0619  0.0144  0.0013  0.0000  0.0000  0.0000  0.0000  0.0000 </r>
        <r>  0.0007  0.0063  0.0015  0.0133  0.0000  0.0000  0.0000  0.0000  0.0000 </r>
        <r>  0.0000  0.0031  0.0003  0.0039  0.0000  0.0000  0.0000  0.0000  0.0000 </r>
        <r>  0.0001  0.0307  0.0030  0.0004  0.0000  0.0000  0.0000  0.0000  0.0000 </r>
        <r>  0.0013  0.0028  0.0012  0.0091  0.0000  0.0000  0.0000  0.0000  0.0000 </r>
        <r>  0.0131  0.0272  0.0120  0.0009  0.0000  0.0000  0.0000  0.0000  0.0000 </r>
       </set>
       <set comment="band 27">
        <r>  0.0001  0.0004  0.0001  0.0114  0.0000  0.0000  0.0000  0.0000  0.0000 </r>
        <r>  0.0123  0.0715  0.0136  0.0001  0.0000  0.0000  0.0000  0.0000  0.0000 </r>
        <r>  0.0001  0.0005  0.0001  0.0108  0.0000  0.0000  0.0000  0.0000  0.0000 </r>
        <r>  0.0091  0.0765  0.0122  0.0001  0.0000  0.0000  0.0000  0.0000  0.0000 </r>
        <r>  0.0107  0.0011  0.0019  0.0000  0.0000  0.0000  0.0000  0.0000  0.0000 </r>
        <r>  0.0001  0.0000  0.0000  0.0005  0.0000  0.0000  0.0000  0.0000  0.0000 </r>
        <r>  0.0107  0.0011  0.0019  0.0000  0.0000  0.0000  0.0000  0.0000  0.0000 </r>
        <r>  0.0001  0.0000  0.0000  0.0005  0.0000  0.0000  0.0000  0.0000  0.0000 </r>
        <r>  0.0001  0.0005  0.0001  0.0108  0.0000  0.0000  0.0000  0.0000  0.0000 </r>
        <r>  0.0091  0.0765  0.0122  0.0001  0.0000  0.0000  0.0000  0.0000  0.0000 </r>
        <r>  0.0001  0.0004  0.0001  0.0114  0.0000  0.0000  0.0000  0.0000  0.0000 </r>
        <r>  0.0123  0.0715  0.0136  0.0001  0.0000  0.0000  0.0000  0.0000  0.0000 </r>
       </set>
       <set comment="band 28">
        <r>  0.0123  0.0715  0.0136  0.0001  0.0000  0.0000  0.0000  0.0000  0.0000 </r>
        <r>  0.0001  0.0004  0.0001  0.0114  0.0000  0.0000  0.0000  0.0000  0.0000 </r>
        <r>  0.0091  0.0765  0.0122  0.0001  0.0000  0.0000  0.0000  0.0000  0.0000 </r>
        <r>  0.0001  0.0005  0.0001  0.0108  0.0000  0.0000  0.0000  0.0000  0.0000 </r>
        <r>  0.0001  0.0000  0.0000  0.0005  0.0000  0.0000  0.0000  0.0000  0.0000 </r>
        <r>  0.0107  0.0011  0.0019  0.0000  0.0000  0.0000  0.0000  0.0000  0.0000 </r>
        <r>  0.0001  0.0000  0.0000  0.0005  0.0000  0.0000  0.0000  0.0000  0.0000 </r>
        <r>  0.0107  0.0011  0.0019  0.0000  0.0000  0.0000  0.0000  0.0000  0.0000 </r>
        <r>  0.0091  0.0765  0.0122  0.0001  0.0000  0.0000  0.0000  0.0000  0.0000 </r>
        <r>  0.0001  0.0005  0.0001  0.0108  0.0000  0.0000  0.0000  0.0000  0.0000 </r>
        <r>  0.0123  0.0715  0.0136  0.0001  0.0000  0.0000  0.0000  0.0000  0.0000 </r>
        <r>  0.0001  0.0004  0.0001  0.0114  0.0000  0.0000  0.0000  0.0000  0.0000 </r>
       </set>
       <set comment="band 29">
        <r>  0.0019  0.0583  0.0033  0.0001  0.0000  0.0000  0.0000  0.0000  0.0000 </r>
        <r>  0.0001  0.0021  0.0001  0.0033  0.0000  0.0000  0.0000  0.0000  0.0000 </r>
        <r>  0.0189  0.0359  0.0087  0.0002  0.0000  0.0000  0.0000  0.0000  0.0000 </r>
        <r>  0.0007  0.0013  0.0003  0.0059  0.0000  0.0000  0.0000  0.0000  0.0000 </r>
        <r>  0.0005  0.0028  0.0004  0.0082  0.0000  0.0000  0.0000  0.0000  0.0000 </r>
        <r>  0.0141  0.0779  0.0103  0.0003  0.0000  0.0000  0.0000  0.0000  0.0000 </r>
        <r>  0.0005  0.0028  0.0004  0.0082  0.0000  0.0000  0.0000  0.0000  0.0000 </r>
        <r>  0.0141  0.0779  0.0103  0.0003  0.0000  0.0000  0.0000  0.0000  0.0000 </r>
        <r>  0.0189  0.0359  0.0087  0.0002  0.0000  0.0000  0.0000  0.0000  0.0000 </r>
        <r>  0.0007  0.0013  0.0003  0.0059  0.0000  0.0000  0.0000  0.0000  0.0000 </r>
        <r>  0.0019  0.0583  0.0033  0.0001  0.0000  0.0000  0.0000  0.0000  0.0000 </r>
        <r>  0.0001  0.0021  0.0001  0.0033  0.0000  0.0000  0.0000  0.0000  0.0000 </r>
       </set>
       <set comment="band 30">
        <r>  0.0001  0.0021  0.0001  0.0033  0.0000  0.0000  0.0000  0.0000  0.0000 </r>
        <r>  0.0019  0.0583  0.0033  0.0001  0.0000  0.0000  0.0000  0.0000  0.0000 </r>
        <r>  0.0007  0.0013  0.0003  0.0059  0.0000  0.0000  0.0000  0.0000  0.0000 </r>
        <r>  0.0189  0.0359  0.0087  0.0002  0.0000  0.0000  0.0000  0.0000  0.0000 </r>
        <r>  0.0141  0.0779  0.0103  0.0003  0.0000  0.0000  0.0000  0.0000  0.0000 </r>
        <r>  0.0005  0.0028  0.0004  0.0082  0.0000  0.0000  0.0000  0.0000  0.0000 </r>
        <r>  0.0141  0.0779  0.0103  0.0003  0.0000  0.0000  0.0000  0.0000  0.0000 </r>
        <r>  0.0005  0.0028  0.0004  0.0082  0.0000  0.0000  0.0000  0.0000  0.0000 </r>
        <r>  0.0007  0.0013  0.0003  0.0059  0.0000  0.0000  0.0000  0.0000  0.0000 </r>
        <r>  0.0189  0.0359  0.0087  0.0002  0.0000  0.0000  0.0000  0.0000  0.0000 </r>
        <r>  0.0001  0.0021  0.0001  0.0033  0.0000  0.0000  0.0000  0.0000  0.0000 </r>
        <r>  0.0019  0.0583  0.0033  0.0001  0.0000  0.0000  0.0000  0.0000  0.0000 </r>
       </set>
       <set comment="band 31">
        <r>  0.0046  0.0399  0.0022  0.0000  0.0000  0.0000  0.0000  0.0000  0.0000 </r>
        <r>  0.0001  0.0008  0.0000  0.0013  0.0000  0.0000  0.0000  0.0000  0.0000 </r>
        <r>  0.0127  0.0097  0.0004  0.0000  0.0000  0.0000  0.0000  0.0000  0.0000 </r>
        <r>  0.0003  0.0002  0.0000  0.0005  0.0000  0.0000  0.0000  0.0000  0.0000 </r>
        <r>  0.0003  0.0009  0.0000  0.0016  0.0000  0.0000  0.0000  0.0000  0.0000 </r>
        <r>  0.0146  0.0452  0.0020  0.0000  0.0000  0.0000  0.0000  0.0000  0.0000 </r>
        <r>  0.0003  0.0009  0.0000  0.0016  0.0000  0.0000  0.0000  0.0000  0.0000 </r>
        <r>  0.0146  0.0452  0.0020  0.0000  0.0000  0.0000  0.0000  0.0000  0.0000 </r>
        <r>  0.0127  0.0097  0.0004  0.0000  0.0000  0.0000  0.0000  0.0000  0.0000 </r>
        <r>  0.0003  0.0002  0.0000  0.0005  0.0000  0.0000  0.0000  0.0000  0.0000 </r>
        <r>  0.0046  0.0399  0.0022  0.0000  0.0000  0.0000  0.0000  0.0000  0.0000 </r>
        <r>  0.0001  0.0008  0.0000  0.0013  0.0000  0.0000  0.0000  0.0000  0.0000 </r>
       </set>
       <set comment="band 32">
        <r>  0.0001  0.0008  0.0000  0.0013  0.0000  0.0000  0.0000  0.0000  0.0000 </r>
        <r>  0.0046  0.0399  0.0022  0.0000  0.0000  0.0000  0.0000  0.0000  0.0000 </r>
        <r>  0.0003  0.0002  0.0000  0.0005  0.0000  0.0000  0.0000  0.0000  0.0000 </r>
        <r>  0.0127  0.0097  0.0004  0.0000  0.0000  0.0000  0.0000  0.0000  0.0000 </r>
        <r>  0.0146  0.0452  0.0020  0.0000  0.0000  0.0000  0.0000  0.0000  0.0000 </r>
        <r>  0.0003  0.0009  0.0000  0.0016  0.0000  0.0000  0.0000  0.0000  0.0000 </r>
        <r>  0.0146  0.0452  0.0020  0.0000  0.0000  0.0000  0.0000  0.0000  0.0000 </r>
        <r>  0.0003  0.0009  0.0000  0.0016  0.0000  0.0000  0.0000  0.0000  0.0000 </r>
        <r>  0.0003  0.0002  0.0000  0.0005  0.0000  0.0000  0.0000  0.0000  0.0000 </r>
        <r>  0.0127  0.0097  0.0004  0.0000  0.0000  0.0000  0.0000  0.0000  0.0000 </r>
        <r>  0.0001  0.0008  0.0000  0.0013  0.0000  0.0000  0.0000  0.0000  0.0000 </r>
        <r>  0.0046  0.0399  0.0022  0.0000  0.0000  0.0000  0.0000  0.0000  0.0000 </r>
       </set>
       <set comment="band 33">
        <r>  0.0078  0.0281  0.0021  0.0014  0.0000  0.0000  0.0000  0.0000  0.0000 </r>
        <r>  0.0042  0.0151  0.0011  0.0027  0.0000  0.0000  0.0000  0.0000  0.0000 </r>
        <r>  0.0059  0.0338  0.0006  0.0009  0.0000  0.0000  0.0000  0.0000  0.0000 </r>
        <r>  0.0032  0.0182  0.0003  0.0016  0.0000  0.0000  0.0000  0.0000  0.0000 </r>
        <r>  0.0006  0.0028  0.0007  0.0004  0.0000  0.0000  0.0000  0.0000  0.0000 </r>
        <r>  0.0011  0.0052  0.0013  0.0002  0.0000  0.0000  0.0000  0.0000  0.0000 </r>
        <r>  0.0006  0.0028  0.0007  0.0004  0.0000  0.0000  0.0000  0.0000  0.0000 </r>
        <r>  0.0011  0.0052  0.0013  0.0002  0.0000  0.0000  0.0000  0.0000  0.0000 </r>
        <r>  0.0059  0.0338  0.0006  0.0009  0.0000  0.0000  0.0000  0.0000  0.0000 </r>
        <r>  0.0032  0.0182  0.0003  0.0016  0.0000  0.0000  0.0000  0.0000  0.0000 </r>
        <r>  0.0078  0.0281  0.0021  0.0014  0.0000  0.0000  0.0000  0.0000  0.0000 </r>
        <r>  0.0042  0.0151  0.0011  0.0027  0.0000  0.0000  0.0000  0.0000  0.0000 </r>
       </set>
       <set comment="band 34">
        <r>  0.0042  0.0151  0.0011  0.0027  0.0000  0.0000  0.0000  0.0000  0.0000 </r>
        <r>  0.0078  0.0281  0.0021  0.0014  0.0000  0.0000  0.0000  0.0000  0.0000 </r>
        <r>  0.0032  0.0182  0.0003  0.0016  0.0000  0.0000  0.0000  0.0000  0.0000 </r>
        <r>  0.0059  0.0338  0.0006  0.0009  0.0000  0.0000  0.0000  0.0000  0.0000 </r>
        <r>  0.0011  0.0052  0.0013  0.0002  0.0000  0.0000  0.0000  0.0000  0.0000 </r>
        <r>  0.0006  0.0028  0.0007  0.0004  0.0000  0.0000  0.0000  0.0000  0.0000 </r>
        <r>  0.0011  0.0052  0.0013  0.0002  0.0000  0.0000  0.0000  0.0000  0.0000 </r>
        <r>  0.0006  0.0028  0.0007  0.0004  0.0000  0.0000  0.0000  0.0000  0.0000 </r>
        <r>  0.0032  0.0182  0.0003  0.0016  0.0000  0.0000  0.0000  0.0000  0.0000 </r>
        <r>  0.0059  0.0338  0.0006  0.0009  0.0000  0.0000  0.0000  0.0000  0.0000 </r>
        <r>  0.0042  0.0151  0.0011  0.0027  0.0000  0.0000  0.0000  0.0000  0.0000 </r>
        <r>  0.0078  0.0281  0.0021  0.0014  0.0000  0.0000  0.0000  0.0000  0.0000 </r>
       </set>
       <set comment="band 35">
        <r>  0.0066  0.0154  0.0004  0.0009  0.0000  0.0000  0.0000  0.0000  0.0000 </r>
        <r>  0.0019  0.0044  0.0001  0.0033  0.0000  0.0000  0.0000  0.0000  0.0000 </r>
        <r>  0.0031  0.0358  0.0044  0.0015  0.0000  0.0000  0.0000  0.0000  0.0000 </r>
        <r>  0.0009  0.0103  0.0013  0.0053  0.0000  0.0000  0.0000  0.0000  0.0000 </r>
        <r>  0.0015  0.0101  0.0002  0.0064  0.0000  0.0000  0.0000  0.0000  0.0000 </r>
        <r>  0.0054  0.0352  0.0007  0.0018  0.0000  0.0000  0.0000  0.0000  0.0000 </r>
        <r>  0.0015  0.0101  0.0002  0.0064  0.0000  0.0000  0.0000  0.0000  0.0000 </r>
        <r>  0.0054  0.0352  0.0007  0.0018  0.0000  0.0000  0.0000  0.0000  0.0000 </r>
        <r>  0.0031  0.0358  0.0044  0.0015  0.0000  0.0000  0.0000  0.0000  0.0000 </r>
        <r>  0.0009  0.0103  0.0013  0.0053  0.0000  0.0000  0.0000  0.0000  0.0000 </r>
        <r>  0.0066  0.0154  0.0004  0.0009  0.0000  0.0000  0.0000  0.0000  0.0000 </r>
        <r>  0.0019  0.0044  0.0001  0.0033  0.0000  0.0000  0.0000  0.0000  0.0000 </r>
       </set>
       <set comment="band 36">
        <r>  0.0019  0.0044  0.0001  0.0033  0.0000  0.0000  0.0000  0.0000  0.0000 </r>
        <r>  0.0066  0.0154  0.0004  0.0009  0.0000  0.0000  0.0000  0.0000  0.0000 </r>
        <r>  0.0009  0.0103  0.0013  0.0053  0.0000  0.0000  0.0000  0.0000  0.0000 </r>
        <r>  0.0031  0.0358  0.0044  0.0015  0.0000  0.0000  0.0000  0.0000  0.0000 </r>
        <r>  0.0054  0.0352  0.0007  0.0018  0.0000  0.0000  0.0000  0.0000  0.0000 </r>
        <r>  0.0015  0.0101  0.0002  0.0064  0.0000  0.0000  0.0000  0.0000  0.0000 </r>
        <r>  0.0054  0.0352  0.0007  0.0018  0.0000  0.0000  0.0000  0.0000  0.0000 </r>
        <r>  0.0015  0.0101  0.0002  0.0064  0.0000  0.0000  0.0000  0.0000  0.0000 </r>
        <r>  0.0009  0.0103  0.0013  0.0053  0.0000  0.0000  0.0000  0.0000  0.0000 </r>
        <r>  0.0031  0.0358  0.0044  0.0015  0.0000  0.0000  0.0000  0.0000  0.0000 </r>
        <r>  0.0019  0.0044  0.0001  0.0033  0.0000  0.0000  0.0000  0.0000  0.0000 </r>
        <r>  0.0066  0.0154  0.0004  0.0009  0.0000  0.0000  0.0000  0.0000  0.0000 </r>
       </set>
       <set comment="band 37">
        <r>  0.0005  0.0004  0.0066  0.0065  0.0000  0.0000  0.0000  0.0000  0.0000 </r>
        <r>  0.0010  0.0008  0.0145  0.0029  0.0000  0.0000  0.0000  0.0000  0.0000 </r>
        <r>  0.0009  0.0010  0.0087  0.0099  0.0000  0.0000  0.0000  0.0000  0.0000 </r>
        <r>  0.0020  0.0021  0.0192  0.0045  0.0000  0.0000  0.0000  0.0000  0.0000 </r>
        <r>  0.0036  0.0012  0.0481  0.0102  0.0000  0.0000  0.0000  0.0000  0.0000 </r>
        <r>  0.0017  0.0006  0.0218  0.0224  0.0000  0.0000  0.0000  0.0000  0.0000 </r>
        <r>  0.0036  0.0012  0.0481  0.0102  0.0000  0.0000  0.0000  0.0000  0.0000 </r>
        <r>  0.0017  0.0006  0.0218  0.0224  0.0000  0.0000  0.0000  0.0000  0.0000 </r>
        <r>  0.0009  0.0010  0.0087  0.0099  0.0000  0.0000  0.0000  0.0000  0.0000 </r>
        <r>  0.0020  0.0021  0.0192  0.0045  0.0000  0.0000  0.0000  0.0000  0.0000 </r>
        <r>  0.0005  0.0004  0.0066  0.0064  0.0000  0.0000  0.0000  0.0000  0.0000 </r>
        <r>  0.0010  0.0008  0.0144  0.0029  0.0000  0.0000  0.0000  0.0000  0.0000 </r>
       </set>
       <set comment="band 38">
        <r>  0.0010  0.0008  0.0145  0.0029  0.0000  0.0000  0.0000  0.0000  0.0000 </r>
        <r>  0.0005  0.0004  0.0066  0.0065  0.0000  0.0000  0.0000  0.0000  0.0000 </r>
        <r>  0.0020  0.0021  0.0193  0.0045  0.0000  0.0000  0.0000  0.0000  0.0000 </r>
        <r>  0.0009  0.0010  0.0087  0.0099  0.0000  0.0000  0.0000  0.0000  0.0000 </r>
        <r>  0.0017  0.0006  0.0219  0.0224  0.0000  0.0000  0.0000  0.0000  0.0000 </r>
        <r>  0.0036  0.0012  0.0478  0.0102  0.0000  0.0000  0.0000  0.0000  0.0000 </r>
        <r>  0.0017  0.0006  0.0219  0.0224  0.0000  0.0000  0.0000  0.0000  0.0000 </r>
        <r>  0.0036  0.0012  0.0479  0.0102  0.0000  0.0000  0.0000  0.0000  0.0000 </r>
        <r>  0.0020  0.0021  0.0193  0.0044  0.0000  0.0000  0.0000  0.0000  0.0000 </r>
        <r>  0.0009  0.0010  0.0086  0.0099  0.0000  0.0000  0.0000  0.0000  0.0000 </r>
        <r>  0.0010  0.0008  0.0146  0.0029  0.0000  0.0000  0.0000  0.0000  0.0000 </r>
        <r>  0.0005  0.0004  0.0065  0.0065  0.0000  0.0000  0.0000  0.0000  0.0000 </r>
       </set>
       <set comment="band 39">
        <r>  0.0040  0.0015  0.0558  0.0013  0.0000  0.0000  0.0000  0.0000  0.0000 </r>
        <r>  0.0002  0.0001  0.0029  0.0251  0.0000  0.0000  0.0000  0.0000  0.0000 </r>
        <r>  0.0033  0.0012  0.0575  0.0014  0.0000  0.0000  0.0000  0.0000  0.0000 </r>
        <r>  0.0002  0.0001  0.0030  0.0270  0.0000  0.0000  0.0000  0.0000  0.0000 </r>
        <r>  0.0001  0.0003  0.0003  0.0037  0.0000  0.0000  0.0000  0.0000  0.0000 </r>
        <r>  0.0016  0.0045  0.0015  0.0003  0.0000  0.0000  0.0000  0.0000  0.0000 </r>
        <r>  0.0001  0.0003  0.0001  0.0035  0.0000  0.0000  0.0000  0.0000  0.0000 </r>
        <r>  0.0015  0.0045  0.0011  0.0003  0.0000  0.0000  0.0000  0.0000  0.0000 </r>
        <r>  0.0035  0.0012  0.0628  0.0021  0.0000  0.0000  0.0000  0.0000  0.0000 </r>
        <r>  0.0002  0.0001  0.0047  0.0292  0.0000  0.0000  0.0000  0.0000  0.0000 </r>
        <r>  0.0043  0.0016  0.0608  0.0020  0.0000  0.0000  0.0000  0.0000  0.0000 </r>
        <r>  0.0003  0.0001  0.0045  0.0274  0.0000  0.0000  0.0000  0.0000  0.0000 </r>
       </set>
       <set comment="band 40">
        <r>  0.0003  0.0002  0.0038  0.0220  0.0000  0.0000  0.0000  0.0000  0.0000 </r>
        <r>  0.0035  0.0013  0.0486  0.0016  0.0000  0.0000  0.0000  0.0000  0.0000 </r>
        <r>  0.0002  0.0001  0.0038  0.0236  0.0000  0.0000  0.0000  0.0000  0.0000 </r>
        <r>  0.0028  0.0010  0.0501  0.0018  0.0000  0.0000  0.0000  0.0000  0.0000 </r>
        <r>  0.0020  0.0043  0.0047  0.0001  0.0000  0.0000  0.0000  0.0000  0.0000 </r>
        <r>  0.0001  0.0003  0.0006  0.0061  0.0000  0.0000  0.0000  0.0000  0.0000 </r>
        <r>  0.0017  0.0041  0.0034  0.0000  0.0000  0.0000  0.0000  0.0000  0.0000 </r>
        <r>  0.0000  0.0003  0.0005  0.0052  0.0000  0.0000  0.0000  0.0000  0.0000 </r>
        <r>  0.0003  0.0001  0.0055  0.0301  0.0000  0.0000  0.0000  0.0000  0.0000 </r>
        <r>  0.0035  0.0010  0.0660  0.0025  0.0000  0.0000  0.0000  0.0000  0.0000 </r>
        <r>  0.0004  0.0002  0.0054  0.0287  0.0000  0.0000  0.0000  0.0000  0.0000 </r>
        <r>  0.0044  0.0015  0.0633  0.0024  0.0000  0.0000  0.0000  0.0000  0.0000 </r>
       </set>
      </set>
     </set>
    </set>
   </array>
  </projected>
 </calculation>
 <structure name="finalpos" >
  <crystal>
   <varray name="basis" >
    <v>       3.34288600       0.00000000       0.00000000 </v>
    <v>       0.00000000      32.60240900       0.00000000 </v>
    <v>       0.00000000       0.00000000       4.37483100 </v>
   </varray>
   <i name="volume">    476.79592902 </i>
   <varray name="rec_basis" >
    <v>       0.29914272       0.00000000       0.00000000 </v>
    <v>       0.00000000       0.03067258       0.00000000 </v>
    <v>       0.00000000       0.00000000       0.22858026 </v>
   </varray>
  </crystal>
  <varray name="positions" >
   <v>       0.00000000       0.30672600       0.91892400 </v>
   <v>       0.50000000       0.30672600       0.58107600 </v>
   <v>       0.00000000       0.37246700       0.08107600 </v>
   <v>       0.50000000       0.37246700       0.41892400 </v>
   <v>       0.50000000       0.46712900       0.41892400 </v>
   <v>       0.00000000       0.46712900       0.08107600 </v>
   <v>       0.50000000       0.53287100       0.58107600 </v>
   <v>       0.00000000       0.53287100       0.91892400 </v>
   <v>       0.00000000       0.62753300       0.91892400 </v>
   <v>       0.50000000       0.62753300       0.58107600 </v>
   <v>       0.00000000       0.69327400       0.08107600 </v>
   <v>       0.50000000       0.69327400       0.41892400 </v>
  </varray>
 </structure>
</modeling>
