  12  12   1   0
  0.3973299E+02  0.3342886E-09  0.3260241E-08  0.4374831E-09  0.5000000E-15
  1.000000000000000E-004
  CAR 
 Generic Input                           
      5.85387778    -15.84095875 2000      0.93894682      1.00000000
    -15.841  0.0000E+00  0.0000E+00
    -15.830  0.0000E+00  0.0000E+00
    -15.819  0.0000E+00  0.0000E+00
    -15.808  0.0000E+00  0.0000E+00
    -15.798  0.0000E+00  0.0000E+00
    -15.787  0.0000E+00  0.0000E+00
    -15.776  0.0000E+00  0.0000E+00
    -15.765  0.0000E+00  0.0000E+00
    -15.754  0.0000E+00  0.0000E+00
    -15.743  0.0000E+00  0.0000E+00
    -15.732  0.0000E+00  0.0000E+00
    -15.722  0.0000E+00  0.0000E+00
    -15.711  0.0000E+00  0.0000E+00
    -15.700  0.0000E+00  0.0000E+00
    -15.689  0.0000E+00  0.0000E+00
    -15.678  0.0000E+00  0.0000E+00
    -15.667  0.0000E+00  0.0000E+00
    -15.656  0.0000E+00  0.0000E+00
    -15.646  0.0000E+00  0.0000E+00
    -15.635  0.0000E+00  0.0000E+00
    -15.624  0.0000E+00  0.0000E+00
    -15.613  0.0000E+00  0.0000E+00
    -15.602  0.0000E+00  0.0000E+00
    -15.591  0.0000E+00  0.0000E+00
    -15.580  0.0000E+00  0.0000E+00
    -15.570  0.0000E+00  0.0000E+00
    -15.559  0.0000E+00  0.0000E+00
    -15.548  0.0000E+00  0.0000E+00
    -15.537  0.0000E+00  0.0000E+00
    -15.526  0.0000E+00  0.0000E+00
    -15.515  0.0000E+00  0.0000E+00
    -15.505  0.0000E+00  0.0000E+00
    -15.494  0.0000E+00  0.0000E+00
    -15.483  0.0000E+00  0.0000E+00
    -15.472  0.0000E+00  0.0000E+00
    -15.461  0.0000E+00  0.0000E+00
    -15.450  0.0000E+00  0.0000E+00
    -15.439  0.0000E+00  0.0000E+00
    -15.429  0.0000E+00  0.0000E+00
    -15.418  0.0000E+00  0.0000E+00
    -15.407  0.0000E+00  0.0000E+00
    -15.396  0.0000E+00  0.0000E+00
    -15.385  0.0000E+00  0.0000E+00
    -15.374  0.0000E+00  0.0000E+00
    -15.363  0.0000E+00  0.0000E+00
    -15.353  0.0000E+00  0.0000E+00
    -15.342  0.0000E+00  0.0000E+00
    -15.331  0.0000E+00  0.0000E+00
    -15.320  0.0000E+00  0.0000E+00
    -15.309  0.0000E+00  0.0000E+00
    -15.298  0.0000E+00  0.0000E+00
    -15.287  0.0000E+00  0.0000E+00
    -15.277  0.0000E+00  0.0000E+00
    -15.266  0.0000E+00  0.0000E+00
    -15.255  0.0000E+00  0.0000E+00
    -15.244  0.0000E+00  0.0000E+00
    -15.233  0.0000E+00  0.0000E+00
    -15.222  0.0000E+00  0.0000E+00
    -15.211  0.0000E+00  0.0000E+00
    -15.201  0.0000E+00  0.0000E+00
    -15.190  0.0000E+00  0.0000E+00
    -15.179  0.0000E+00  0.0000E+00
    -15.168  0.0000E+00  0.0000E+00
    -15.157  0.0000E+00  0.0000E+00
    -15.146  0.0000E+00  0.0000E+00
    -15.136  0.0000E+00  0.0000E+00
    -15.125  0.0000E+00  0.0000E+00
    -15.114  0.0000E+00  0.0000E+00
    -15.103  0.0000E+00  0.0000E+00
    -15.092  0.0000E+00  0.0000E+00
    -15.081  0.0000E+00  0.0000E+00
    -15.070  0.0000E+00  0.0000E+00
    -15.060  0.0000E+00  0.0000E+00
    -15.049  0.0000E+00  0.0000E+00
    -15.038  0.0000E+00  0.0000E+00
    -15.027  0.0000E+00  0.0000E+00
    -15.016  0.0000E+00  0.0000E+00
    -15.005  0.0000E+00  0.0000E+00
    -14.994  0.0000E+00  0.0000E+00
    -14.984  0.0000E+00  0.0000E+00
    -14.973  0.0000E+00  0.0000E+00
    -14.962  0.0000E+00  0.0000E+00
    -14.951  0.0000E+00  0.0000E+00
    -14.940  0.0000E+00  0.0000E+00
    -14.929  0.0000E+00  0.0000E+00
    -14.918  0.0000E+00  0.0000E+00
    -14.908  0.3201E-12  0.3474E-14
    -14.897  0.1163E-07  0.1262E-09
    -14.886  0.4248E-04  0.4612E-06
    -14.875  0.1620E-01  0.1763E-03
    -14.864  0.6940E+00  0.7708E-02
    -14.853  0.3765E+01  0.4857E-01
    -14.842  0.2891E+01  0.7995E-01
    -14.832  0.3075E+00  0.8329E-01
    -14.821  0.3995E-02  0.8333E-01
    -14.810  0.5686E-05  0.8333E-01
    -14.799  0.8342E-09  0.8333E-01
    -14.788  0.1462E-12  0.8333E-01
    -14.777  0.5784E-08  0.8333E-01
    -14.767  0.2502E-04  0.8333E-01
    -14.756  0.1126E-01  0.8346E-01
    -14.745  0.5650E+00  0.8959E-01
    -14.734  0.3555E+01  0.1282E+00
    -14.723  0.3151E+01  0.1624E+00
    -14.712  0.3895E+00  0.1666E+00
    -14.701  0.5940E-02  0.1667E+00
    -14.691  0.1887E-02  0.1667E+00
    -14.680  0.1939E+00  0.1688E+00
    -14.669  0.2403E+01  0.1949E+00
    -14.658  0.4068E+01  0.2390E+00
    -14.647  0.9812E+00  0.2497E+00
    -14.636  0.3054E-01  0.2500E+00
    -14.625  0.1082E-03  0.2500E+00
    -14.615  0.4030E-07  0.2500E+00
    -14.604  0.1516E-11  0.2500E+00
    -14.593  0.0000E+00  0.2500E+00
    -14.582  0.5793E-11  0.2500E+00
    -14.571  0.1349E-06  0.2500E+00
    -14.560  0.3177E-03  0.2500E+00
    -14.549  0.7897E-01  0.2509E+00
    -14.539  0.2248E+01  0.2753E+00
    -14.528  0.8323E+01  0.3656E+00
    -14.517  0.4815E+01  0.4178E+00
    -14.506  0.5292E+01  0.4753E+00
    -14.495  0.8050E+01  0.5626E+00
    -14.484  0.1852E+01  0.5827E+00
    -14.474  0.5482E-01  0.5833E+00
    -14.463  0.1842E-03  0.5833E+00
    -14.452  0.2463E-06  0.5833E+00
    -14.441  0.3957E-03  0.5833E+00
    -14.430  0.9136E-01  0.5843E+00
    -14.419  0.2425E+01  0.6106E+00
    -14.408  0.8486E+01  0.7027E+00
    -14.398  0.6493E+01  0.7732E+00
    -14.387  0.8640E+01  0.8670E+00
    -14.376  0.4280E+01  0.9134E+00
    -14.365  0.3300E+00  0.9170E+00
    -14.354  0.1423E+01  0.9325E+00
    -14.343  0.7955E+01  0.1019E+01
    -14.332  0.1051E+02  0.1133E+01
    -14.322  0.8746E+01  0.1228E+01
    -14.311  0.1983E+01  0.1249E+01
    -14.300  0.6183E-01  0.1250E+01
    -14.289  0.2203E-03  0.1250E+01
    -14.278  0.8257E-07  0.1250E+01
    -14.267  0.3125E-11  0.1250E+01
    -14.256  0.0000E+00  0.1250E+01
    -14.246  0.0000E+00  0.1250E+01
    -14.235  0.2019E-10  0.1250E+01
    -14.224  0.4192E-06  0.1250E+01
    -14.213  0.8817E-03  0.1250E+01
    -14.202  0.1962E+00  0.1252E+01
    -14.191  0.5030E+01  0.1307E+01
    -14.180  0.1687E+02  0.1490E+01
    -14.170  0.8088E+01  0.1578E+01
    -14.159  0.5232E+00  0.1583E+01
    -14.148  0.4008E-02  0.1583E+01
    -14.137  0.3302E-05  0.1583E+01
    -14.126  0.2785E-09  0.1583E+01
    -14.115  0.2808E-07  0.1583E+01
    -14.105  0.1159E-03  0.1583E+01
    -14.094  0.4985E-01  0.1584E+01
    -14.083  0.2394E+01  0.1610E+01
    -14.072  0.1446E+02  0.1767E+01
    -14.061  0.1232E+02  0.1901E+01
    -14.050  0.1461E+01  0.1916E+01
    -14.039  0.2443E-01  0.1917E+01
    -14.029  0.4450E+00  0.1922E+01
    -14.018  0.7509E+01  0.2003E+01
    -14.007  0.1701E+02  0.2188E+01
    -13.996  0.5511E+01  0.2247E+01
    -13.985  0.2350E+00  0.2250E+01
    -13.974  0.1159E-02  0.2250E+01
    -13.963  0.6066E-06  0.2250E+01
    -13.953  0.3220E-10  0.2250E+01
    -13.942  0.0000E+00  0.2250E+01
    -13.931  0.0000E+00  0.2250E+01
    -13.920  0.0000E+00  0.2250E+01
    -13.909  0.0000E+00  0.2250E+01
    -13.898  0.0000E+00  0.2250E+01
    -13.887  0.0000E+00  0.2250E+01
    -13.877  0.0000E+00  0.2250E+01
    -13.866  0.0000E+00  0.2250E+01
    -13.855  0.0000E+00  0.2250E+01
    -13.844  0.0000E+00  0.2250E+01
    -13.833  0.0000E+00  0.2250E+01
    -13.822  0.0000E+00  0.2250E+01
    -13.811  0.0000E+00  0.2250E+01
    -13.801  0.0000E+00  0.2250E+01
    -13.790  0.0000E+00  0.2250E+01
    -13.779  0.0000E+00  0.2250E+01
    -13.768  0.0000E+00  0.2250E+01
    -13.757  0.0000E+00  0.2250E+01
    -13.746  0.0000E+00  0.2250E+01
    -13.736  0.0000E+00  0.2250E+01
    -13.725  0.0000E+00  0.2250E+01
    -13.714  0.0000E+00  0.2250E+01
    -13.703  0.0000E+00  0.2250E+01
    -13.692  0.0000E+00  0.2250E+01
    -13.681  0.0000E+00  0.2250E+01
    -13.670  0.0000E+00  0.2250E+01
    -13.660  0.0000E+00  0.2250E+01
    -13.649  0.0000E+00  0.2250E+01
    -13.638  0.0000E+00  0.2250E+01
    -13.627  0.3998E-10  0.2250E+01
    -13.616  0.6215E-06  0.2250E+01
    -13.605  0.9826E-03  0.2250E+01
    -13.594  0.1657E+00  0.2252E+01
    -13.584  0.3265E+01  0.2287E+01
    -13.573  0.8558E+01  0.2380E+01
    -13.562  0.3480E+01  0.2418E+01
    -13.551  0.4275E+01  0.2464E+01
    -13.540  0.8416E+01  0.2556E+01
    -13.529  0.2459E+01  0.2582E+01
    -13.518  0.9389E-01  0.2583E+01
    -13.508  0.5572E-03  0.2583E+01
    -13.497  0.4659E-01  0.2584E+01
    -13.486  0.1706E+01  0.2602E+01
    -13.475  0.8640E+01  0.2696E+01
    -13.464  0.1142E+02  0.2820E+01
    -13.453  0.7700E+01  0.2904E+01
    -13.442  0.1983E+01  0.2925E+01
    -13.432  0.6365E+01  0.2994E+01
    -13.421  0.7106E+01  0.3071E+01
    -13.410  0.2400E+01  0.3097E+01
    -13.399  0.7404E+01  0.3178E+01
    -13.388  0.5977E+01  0.3243E+01
    -13.377  0.6720E+00  0.3250E+01
    -13.367  0.9262E-02  0.3250E+01
    -13.356  0.1402E-04  0.3250E+01
    -13.345  0.2190E-08  0.3250E+01
    -13.334  0.3410E-13  0.3250E+01
    -13.323  0.0000E+00  0.3250E+01
    -13.312  0.1705E-14  0.3250E+01
    -13.301  0.1953E-09  0.3250E+01
    -13.291  0.2506E-05  0.3250E+01
    -13.280  0.3281E-02  0.3250E+01
    -13.269  0.4618E+00  0.3255E+01
    -13.258  0.7874E+01  0.3341E+01
    -13.247  0.2261E+02  0.3586E+01
    -13.236  0.2244E+02  0.3829E+01
    -13.225  0.7609E+01  0.3912E+01
    -13.215  0.4302E+00  0.3917E+01
    -13.204  0.3016E-02  0.3917E+01
    -13.193  0.3853E-01  0.3917E+01
    -13.182  0.2066E+01  0.3940E+01
    -13.171  0.1385E+02  0.4090E+01
    -13.160  0.1378E+02  0.4239E+01
    -13.149  0.1120E+02  0.4361E+01
    -13.139  0.1754E+02  0.4551E+01
    -13.128  0.1538E+02  0.4718E+01
    -13.117  0.1534E+02  0.4885E+01
    -13.106  0.3503E+01  0.4923E+01
    -13.095  0.8781E+01  0.5018E+01
    -13.084  0.1667E+02  0.5199E+01
    -13.073  0.4552E+01  0.5248E+01
    -13.063  0.1617E+00  0.5250E+01
    -13.052  0.6585E-03  0.5250E+01
    -13.041  0.2831E-06  0.5250E+01
    -13.030  0.1231E-10  0.5250E+01
    -13.019  0.0000E+00  0.5250E+01
    -13.008  0.0000E+00  0.5250E+01
    -12.998  0.0000E+00  0.5250E+01
    -12.987  0.0000E+00  0.5250E+01
    -12.976  0.0000E+00  0.5250E+01
    -12.965  0.0000E+00  0.5250E+01
    -12.954  0.0000E+00  0.5250E+01
    -12.943  0.0000E+00  0.5250E+01
    -12.932  0.0000E+00  0.5250E+01
    -12.922  0.0000E+00  0.5250E+01
    -12.911  0.0000E+00  0.5250E+01
    -12.900  0.0000E+00  0.5250E+01
    -12.889  0.0000E+00  0.5250E+01
    -12.878  0.0000E+00  0.5250E+01
    -12.867  0.0000E+00  0.5250E+01
    -12.856  0.0000E+00  0.5250E+01
    -12.846  0.0000E+00  0.5250E+01
    -12.835  0.0000E+00  0.5250E+01
    -12.824  0.0000E+00  0.5250E+01
    -12.813  0.0000E+00  0.5250E+01
    -12.802  0.0000E+00  0.5250E+01
    -12.791  0.0000E+00  0.5250E+01
    -12.780  0.0000E+00  0.5250E+01
    -12.770  0.0000E+00  0.5250E+01
    -12.759  0.0000E+00  0.5250E+01
    -12.748  0.0000E+00  0.5250E+01
    -12.737  0.0000E+00  0.5250E+01
    -12.726  0.0000E+00  0.5250E+01
    -12.715  0.0000E+00  0.5250E+01
    -12.704  0.0000E+00  0.5250E+01
    -12.694  0.0000E+00  0.5250E+01
    -12.683  0.0000E+00  0.5250E+01
    -12.672  0.0000E+00  0.5250E+01
    -12.661  0.0000E+00  0.5250E+01
    -12.650  0.1713E-12  0.5250E+01
    -12.639  0.8071E-08  0.5250E+01
    -12.629  0.3805E-04  0.5250E+01
    -12.618  0.1863E-01  0.5250E+01
    -12.607  0.1013E+01  0.5261E+01
    -12.596  0.6878E+01  0.5336E+01
    -12.585  0.6558E+01  0.5407E+01
    -12.574  0.8746E+00  0.5417E+01
    -12.563  0.1446E-01  0.5417E+01
    -12.553  0.2645E-04  0.5417E+01
    -12.542  0.5012E-08  0.5417E+01
    -12.531  0.9548E-13  0.5417E+01
    -12.520  0.3410E-14  0.5417E+01
    -12.509  0.3098E-09  0.5417E+01
    -12.498  0.3087E-05  0.5417E+01
    -12.487  0.3150E-02  0.5417E+01
    -12.477  0.3476E+00  0.5420E+01
    -12.466  0.4587E+01  0.5470E+01
    -12.455  0.8239E+01  0.5560E+01
    -12.444  0.2111E+01  0.5583E+01
    -12.433  0.7011E-01  0.5583E+01
    -12.422  0.2864E-01  0.5584E+01
    -12.411  0.1289E+01  0.5598E+01
    -12.401  0.7582E+01  0.5680E+01
    -12.390  0.1113E+02  0.5801E+01
    -12.379  0.1927E+02  0.6010E+01
    -12.368  0.1233E+02  0.6144E+01
    -12.357  0.2042E+01  0.6166E+01
    -12.346  0.7616E-01  0.6167E+01
    -12.335  0.7782E-01  0.6168E+01
    -12.325  0.3064E+01  0.6201E+01
    -12.314  0.1544E+02  0.6368E+01
    -12.303  0.1105E+02  0.6488E+01
    -12.292  0.2837E+01  0.6519E+01
    -12.281  0.1852E+02  0.6720E+01
    -12.270  0.3160E+02  0.7063E+01
    -12.260  0.9137E+01  0.7162E+01
    -12.249  0.4028E+00  0.7167E+01
    -12.238  0.2277E-02  0.7167E+01
    -12.227  0.1442E-05  0.7167E+01
    -12.216  0.9481E-10  0.7167E+01
    -12.205  0.2404E-12  0.7167E+01
    -12.194  0.1209E-07  0.7167E+01
    -12.184  0.6105E-04  0.7167E+01
    -12.173  0.3196E-01  0.7167E+01
    -12.162  0.1854E+01  0.7187E+01
    -12.151  0.1338E+02  0.7332E+01
    -12.140  0.1384E+02  0.7483E+01
    -12.129  0.4894E+01  0.7536E+01
    -12.118  0.3742E+01  0.7576E+01
    -12.108  0.1582E+01  0.7593E+01
    -12.097  0.1040E+02  0.7706E+01
    -12.086  0.1593E+02  0.7879E+01
    -12.075  0.5646E+01  0.7940E+01
    -12.064  0.8392E+01  0.8031E+01
    -12.053  0.4621E+01  0.8082E+01
    -12.042  0.3615E+01  0.8121E+01
    -12.032  0.8559E+01  0.8214E+01
    -12.021  0.3183E+01  0.8248E+01
    -12.010  0.1573E+00  0.8250E+01
    -11.999  0.9085E-03  0.8250E+01
    -11.988  0.2488E-02  0.8250E+01
    -11.977  0.2999E+00  0.8253E+01
    -11.966  0.4336E+01  0.8300E+01
    -11.956  0.9444E+01  0.8403E+01
    -11.945  0.6458E+01  0.8473E+01
    -11.934  0.2334E+01  0.8498E+01
    -11.923  0.7097E+00  0.8506E+01
    -11.912  0.5518E+01  0.8566E+01
    -11.901  0.7719E+01  0.8650E+01
    -11.891  0.1532E+01  0.8666E+01
    -11.880  0.4461E-01  0.8667E+01
    -11.869  0.6675E+00  0.8674E+01
    -11.858  0.9012E+01  0.8772E+01
    -11.847  0.1655E+02  0.8951E+01
    -11.836  0.4334E+01  0.8998E+01
    -11.825  0.1473E+00  0.9000E+01
    -11.815  0.1643E-01  0.9000E+01
    -11.804  0.9229E+00  0.9010E+01
    -11.793  0.6676E+01  0.9083E+01
    -11.782  0.6866E+01  0.9157E+01
    -11.771  0.4507E+01  0.9206E+01
    -11.760  0.1597E+02  0.9379E+01
    -11.749  0.1021E+02  0.9490E+01
    -11.739  0.1605E+01  0.9508E+01
    -11.728  0.9257E+01  0.9608E+01
    -11.717  0.1644E+02  0.9787E+01
    -11.706  0.4170E+01  0.9832E+01
    -11.695  0.1369E+00  0.9833E+01
    -11.684  0.5127E-03  0.9833E+01
    -11.673  0.2023E-06  0.9833E+01
    -11.663  0.5502E-10  0.9833E+01
    -11.652  0.7053E-06  0.9833E+01
    -11.641  0.1078E-02  0.9833E+01
    -11.630  0.1760E+00  0.9835E+01
    -11.619  0.3361E+01  0.9872E+01
    -11.608  0.8553E+01  0.9965E+01
    -11.597  0.3115E+01  0.9998E+01
    -11.587  0.1831E+00  0.1000E+02
    -11.576  0.1396E+01  0.1002E+02
    -11.565  0.7541E+01  0.1010E+02
    -11.554  0.5769E+01  0.1016E+02
    -11.543  0.6113E+00  0.1017E+02
    -11.532  0.4123E-01  0.1017E+02
    -11.522  0.1899E+01  0.1019E+02
    -11.511  0.1347E+02  0.1033E+02
    -11.500  0.1341E+02  0.1048E+02
    -11.489  0.1870E+01  0.1050E+02
    -11.478  0.3244E-01  0.1050E+02
    -11.467  0.3336E-03  0.1050E+02
    -11.456  0.8913E-01  0.1050E+02
    -11.446  0.3311E+01  0.1054E+02
    -11.435  0.1572E+02  0.1071E+02
    -11.424  0.1060E+02  0.1082E+02
    -11.413  0.9837E+00  0.1083E+02
    -11.402  0.1105E-01  0.1083E+02
    -11.391  0.1353E-04  0.1083E+02
    -11.380  0.3104E-08  0.1083E+02
    -11.370  0.1163E-04  0.1083E+02
    -11.359  0.9922E-02  0.1083E+02
    -11.348  0.9208E+00  0.1084E+02
    -11.337  0.1032E+02  0.1096E+02
    -11.326  0.1590E+02  0.1113E+02
    -11.315  0.4279E+01  0.1117E+02
    -11.304  0.9848E+01  0.1128E+02
    -11.294  0.1620E+02  0.1146E+02
    -11.283  0.3834E+01  0.1150E+02
    -11.272  0.1169E+00  0.1150E+02
    -11.261  0.4053E-03  0.1150E+02
    -11.250  0.1477E-06  0.1150E+02
    -11.239  0.5435E-11  0.1150E+02
    -11.228  0.0000E+00  0.1150E+02
    -11.218  0.0000E+00  0.1150E+02
    -11.207  0.0000E+00  0.1150E+02
    -11.196  0.0000E+00  0.1150E+02
    -11.185  0.0000E+00  0.1150E+02
    -11.174  0.0000E+00  0.1150E+02
    -11.163  0.0000E+00  0.1150E+02
    -11.153  0.0000E+00  0.1150E+02
    -11.142  0.0000E+00  0.1150E+02
    -11.131  0.0000E+00  0.1150E+02
    -11.120  0.0000E+00  0.1150E+02
    -11.109  0.0000E+00  0.1150E+02
    -11.098  0.0000E+00  0.1150E+02
    -11.087  0.1651E-11  0.1150E+02
    -11.077  0.4963E-07  0.1150E+02
    -11.066  0.1504E-03  0.1150E+02
    -11.055  0.4780E-01  0.1150E+02
    -11.044  0.1720E+01  0.1152E+02
    -11.033  0.7926E+01  0.1161E+02
    -11.022  0.5191E+01  0.1166E+02
    -11.011  0.4672E+00  0.1167E+02
    -11.001  0.5081E-02  0.1167E+02
    -10.990  0.6014E-05  0.1167E+02
    -10.979  0.7313E-09  0.1167E+02
    -10.968  0.8525E-14  0.1167E+02
    -10.957  0.0000E+00  0.1167E+02
    -10.946  0.0000E+00  0.1167E+02
    -10.935  0.0000E+00  0.1167E+02
    -10.925  0.0000E+00  0.1167E+02
    -10.914  0.0000E+00  0.1167E+02
    -10.903  0.0000E+00  0.1167E+02
    -10.892  0.0000E+00  0.1167E+02
    -10.881  0.0000E+00  0.1167E+02
    -10.870  0.0000E+00  0.1167E+02
    -10.860  0.0000E+00  0.1167E+02
    -10.849  0.6573E-12  0.1167E+02
    -10.838  0.2376E-07  0.1167E+02
    -10.827  0.8633E-04  0.1167E+02
    -10.816  0.3276E-01  0.1167E+02
    -10.805  0.1396E+01  0.1168E+02
    -10.794  0.7543E+01  0.1176E+02
    -10.784  0.5766E+01  0.1183E+02
    -10.773  0.6105E+00  0.1183E+02
    -10.762  0.7892E-02  0.1183E+02
    -10.751  0.1117E-04  0.1183E+02
    -10.740  0.1631E-08  0.1183E+02
    -10.729  0.2387E-13  0.1183E+02
    -10.718  0.0000E+00  0.1183E+02
    -10.708  0.0000E+00  0.1183E+02
    -10.697  0.0000E+00  0.1183E+02
    -10.686  0.0000E+00  0.1183E+02
    -10.675  0.1415E-12  0.1183E+02
    -10.664  0.6894E-08  0.1183E+02
    -10.653  0.3374E-04  0.1183E+02
    -10.642  0.1714E-01  0.1183E+02
    -10.632  0.9655E+00  0.1184E+02
    -10.621  0.6774E+01  0.1192E+02
    -10.610  0.6666E+01  0.1199E+02
    -10.599  0.9189E+00  0.1200E+02
    -10.588  0.1574E-01  0.1200E+02
    -10.577  0.2986E-04  0.1200E+02
    -10.566  0.5874E-08  0.1200E+02
    -10.556  0.1159E-12  0.1200E+02
    -10.545  0.0000E+00  0.1200E+02
    -10.534  0.0000E+00  0.1200E+02
    -10.523  0.0000E+00  0.1200E+02
    -10.512  0.0000E+00  0.1200E+02
    -10.501  0.0000E+00  0.1200E+02
    -10.491  0.0000E+00  0.1200E+02
    -10.480  0.0000E+00  0.1200E+02
    -10.469  0.0000E+00  0.1200E+02
    -10.458  0.0000E+00  0.1200E+02
    -10.447  0.0000E+00  0.1200E+02
    -10.436  0.0000E+00  0.1200E+02
    -10.425  0.0000E+00  0.1200E+02
    -10.415  0.0000E+00  0.1200E+02
    -10.404  0.0000E+00  0.1200E+02
    -10.393  0.0000E+00  0.1200E+02
    -10.382  0.0000E+00  0.1200E+02
    -10.371  0.0000E+00  0.1200E+02
    -10.360  0.0000E+00  0.1200E+02
    -10.349  0.0000E+00  0.1200E+02
    -10.339  0.0000E+00  0.1200E+02
    -10.328  0.0000E+00  0.1200E+02
    -10.317  0.0000E+00  0.1200E+02
    -10.306  0.0000E+00  0.1200E+02
    -10.295  0.3640E-12  0.1200E+02
    -10.284  0.1477E-07  0.1200E+02
    -10.273  0.6024E-04  0.1200E+02
    -10.263  0.2559E-01  0.1200E+02
    -10.252  0.1215E+01  0.1201E+02
    -10.241  0.7263E+01  0.1209E+02
    -10.230  0.6124E+01  0.1216E+02
    -10.219  0.7185E+00  0.1217E+02
    -10.208  0.1036E-01  0.1217E+02
    -10.197  0.2332E-04  0.1217E+02
    -10.187  0.5594E-02  0.1217E+02
    -10.176  0.4955E+00  0.1217E+02
    -10.165  0.5317E+01  0.1223E+02
    -10.154  0.8007E+01  0.1232E+02
    -10.143  0.4831E+01  0.1237E+02
    -10.132  0.8600E+01  0.1246E+02
    -10.122  0.3289E+01  0.1250E+02
    -10.111  0.1682E+00  0.1250E+02
    -10.100  0.1005E-02  0.1250E+02
    -10.089  0.6411E-06  0.1250E+02
    -10.078  0.4159E-10  0.1250E+02
    -10.067  0.0000E+00  0.1250E+02
    -10.056  0.0000E+00  0.1250E+02
    -10.046  0.0000E+00  0.1250E+02
    -10.035  0.0000E+00  0.1250E+02
    -10.024  0.0000E+00  0.1250E+02
    -10.013  0.0000E+00  0.1250E+02
    -10.002  0.0000E+00  0.1250E+02
     -9.991  0.0000E+00  0.1250E+02
     -9.980  0.0000E+00  0.1250E+02
     -9.970  0.0000E+00  0.1250E+02
     -9.959  0.0000E+00  0.1250E+02
     -9.948  0.0000E+00  0.1250E+02
     -9.937  0.0000E+00  0.1250E+02
     -9.926  0.0000E+00  0.1250E+02
     -9.915  0.0000E+00  0.1250E+02
     -9.904  0.0000E+00  0.1250E+02
     -9.894  0.0000E+00  0.1250E+02
     -9.883  0.0000E+00  0.1250E+02
     -9.872  0.0000E+00  0.1250E+02
     -9.861  0.0000E+00  0.1250E+02
     -9.850  0.0000E+00  0.1250E+02
     -9.839  0.0000E+00  0.1250E+02
     -9.828  0.0000E+00  0.1250E+02
     -9.818  0.0000E+00  0.1250E+02
     -9.807  0.2046E-13  0.1250E+02
     -9.796  0.1633E-08  0.1250E+02
     -9.785  0.1310E-04  0.1250E+02
     -9.774  0.1080E-01  0.1250E+02
     -9.763  0.9698E+00  0.1251E+02
     -9.753  0.1054E+02  0.1263E+02
     -9.742  0.1576E+02  0.1280E+02
     -9.731  0.3346E+01  0.1283E+02
     -9.720  0.9088E-01  0.1283E+02
     -9.709  0.2791E-03  0.1283E+02
     -9.698  0.8987E-07  0.1283E+02
     -9.687  0.2915E-11  0.1283E+02
     -9.677  0.0000E+00  0.1283E+02
     -9.666  0.0000E+00  0.1283E+02
     -9.655  0.0000E+00  0.1283E+02
     -9.644  0.4484E-12  0.1283E+02
     -9.633  0.2001E-07  0.1283E+02
     -9.622  0.8961E-04  0.1283E+02
     -9.611  0.4173E-01  0.1283E+02
     -9.601  0.2163E+01  0.1286E+02
     -9.590  0.1404E+02  0.1301E+02
     -9.579  0.1281E+02  0.1315E+02
     -9.568  0.1633E+01  0.1317E+02
     -9.557  0.2654E-01  0.1317E+02
     -9.546  0.1453E+00  0.1317E+02
     -9.535  0.3062E+01  0.1320E+02
     -9.525  0.8550E+01  0.1329E+02
     -9.514  0.3416E+01  0.1333E+02
     -9.503  0.2069E+00  0.1333E+02
     -9.492  0.1604E+01  0.1335E+02
     -9.481  0.1319E+02  0.1349E+02
     -9.470  0.2179E+02  0.1373E+02
     -9.459  0.1913E+02  0.1394E+02
     -9.449  0.5650E+01  0.1400E+02
     -9.438  0.5238E+01  0.1406E+02
     -9.427  0.1687E+02  0.1424E+02
     -9.416  0.8301E+01  0.1433E+02
     -9.405  0.3973E+01  0.1437E+02
     -9.394  0.8552E+01  0.1447E+02
     -9.384  0.3034E+01  0.1450E+02
     -9.373  0.1426E+00  0.1450E+02
     -9.362  0.7791E-03  0.1450E+02
     -9.351  0.4532E-06  0.1450E+02
     -9.340  0.2677E-10  0.1450E+02
     -9.329  0.3921E-13  0.1450E+02
     -9.318  0.2752E-08  0.1450E+02
     -9.308  0.1960E-04  0.1450E+02
     -9.297  0.1438E-01  0.1450E+02
     -9.286  0.1154E+01  0.1451E+02
     -9.275  0.1129E+02  0.1464E+02
     -9.264  0.1526E+02  0.1480E+02
     -9.253  0.2923E+01  0.1483E+02
     -9.242  0.7112E-01  0.1483E+02
     -9.232  0.1946E-03  0.1483E+02
     -9.221  0.7013E-06  0.1483E+02
     -9.210  0.1214E-02  0.1483E+02
     -9.199  0.2429E+00  0.1484E+02
     -9.188  0.5738E+01  0.1490E+02
     -9.177  0.2007E+02  0.1512E+02
     -9.166  0.1596E+02  0.1529E+02
     -9.156  0.3870E+01  0.1533E+02
     -9.145  0.1874E+00  0.1533E+02
     -9.134  0.1162E-02  0.1533E+02
     -9.123  0.7794E-06  0.1533E+02
     -9.112  0.5330E-10  0.1533E+02
     -9.101  0.0000E+00  0.1533E+02
     -9.090  0.1083E-10  0.1533E+02
     -9.080  0.2558E-06  0.1533E+02
     -9.069  0.6107E-03  0.1533E+02
     -9.058  0.1538E+00  0.1534E+02
     -9.047  0.4434E+01  0.1538E+02
     -9.036  0.1660E+02  0.1556E+02
     -9.025  0.8955E+01  0.1566E+02
     -9.015  0.3792E+01  0.1570E+02
     -9.004  0.1553E+02  0.1587E+02
     -8.993  0.1089E+02  0.1599E+02
     -8.982  0.1057E+01  0.1600E+02
     -8.971  0.1250E-01  0.1600E+02
     -8.960  0.1621E-04  0.1600E+02
     -8.949  0.2182E-08  0.1600E+02
     -8.939  0.2266E-06  0.1600E+02
     -8.928  0.4673E-03  0.1600E+02
     -8.917  0.1024E+00  0.1600E+02
     -8.906  0.2700E+01  0.1603E+02
     -8.895  0.1260E+02  0.1617E+02
     -8.884  0.2041E+02  0.1639E+02
     -8.873  0.9542E+01  0.1649E+02
     -8.863  0.1175E+01  0.1650E+02
     -8.852  0.5627E+01  0.1657E+02
     -8.841  0.1473E+02  0.1673E+02
     -8.830  0.1762E+02  0.1692E+02
     -8.819  0.7090E+01  0.1699E+02
     -8.808  0.5342E+00  0.1700E+02
     -8.797  0.2128E-01  0.1700E+02
     -8.787  0.1219E+01  0.1701E+02
     -8.776  0.1153E+02  0.1714E+02
     -8.765  0.1509E+02  0.1730E+02
     -8.754  0.2797E+01  0.1733E+02
     -8.743  0.2171E+00  0.1733E+02
     -8.732  0.3125E+01  0.1737E+02
     -8.721  0.8554E+01  0.1746E+02
     -8.711  0.3350E+01  0.1750E+02
     -8.700  0.1748E+00  0.1750E+02
     -8.689  0.6497E-02  0.1750E+02
     -8.678  0.6335E+00  0.1751E+02
     -8.667  0.8809E+01  0.1760E+02
     -8.656  0.1663E+02  0.1778E+02
     -8.646  0.4480E+01  0.1783E+02
     -8.635  0.1572E+00  0.1783E+02
     -8.624  0.5835E-01  0.1783E+02
     -8.613  0.1366E+01  0.1785E+02
     -8.602  0.4250E+01  0.1789E+02
     -8.591  0.1929E+01  0.1792E+02
     -8.580  0.1618E+01  0.1793E+02
     -8.570  0.7687E+01  0.1802E+02
     -8.559  0.5565E+01  0.1808E+02
     -8.548  0.5579E+00  0.1808E+02
     -8.537  0.1871E+00  0.1809E+02
     -8.526  0.3587E+01  0.1812E+02
     -8.515  0.1618E+02  0.1830E+02
     -8.504  0.1614E+02  0.1848E+02
     -8.494  0.5554E+01  0.1854E+02
     -8.483  0.3756E+01  0.1858E+02
     -8.472  0.6504E+00  0.1858E+02
     -8.461  0.1450E-01  0.1858E+02
     -8.450  0.4349E-01  0.1858E+02
     -8.439  0.2887E+01  0.1862E+02
     -8.428  0.2426E+02  0.1888E+02
     -8.418  0.2908E+02  0.1919E+02
     -8.407  0.5043E+01  0.1925E+02
     -8.396  0.1134E+00  0.1925E+02
     -8.385  0.2937E-03  0.1925E+02
     -8.374  0.8138E-07  0.1925E+02
     -8.363  0.2315E-11  0.1925E+02
     -8.352  0.0000E+00  0.1925E+02
     -8.342  0.0000E+00  0.1925E+02
     -8.331  0.0000E+00  0.1925E+02
     -8.320  0.0000E+00  0.1925E+02
     -8.309  0.1296E-12  0.1925E+02
     -8.298  0.6422E-08  0.1925E+02
     -8.287  0.3196E-04  0.1925E+02
     -8.277  0.1650E-01  0.1925E+02
     -8.266  0.9446E+00  0.1926E+02
     -8.255  0.6726E+01  0.1933E+02
     -8.244  0.6714E+01  0.1941E+02
     -8.233  0.9394E+00  0.1942E+02
     -8.222  0.1635E-01  0.1942E+02
     -8.211  0.3153E-04  0.1942E+02
     -8.201  0.6308E-08  0.1942E+02
     -8.190  0.8099E-12  0.1942E+02
     -8.179  0.2809E-07  0.1942E+02
     -8.168  0.1160E-03  0.1942E+02
     -8.157  0.4985E-01  0.1942E+02
     -8.146  0.2394E+01  0.1944E+02
     -8.135  0.1446E+02  0.1960E+02
     -8.125  0.1232E+02  0.1973E+02
     -8.114  0.1461E+01  0.1975E+02
     -8.103  0.2132E-01  0.1975E+02
     -8.092  0.3423E-04  0.1975E+02
     -8.081  0.5679E-08  0.1975E+02
     -8.070  0.9548E-13  0.1975E+02
     -8.059  0.0000E+00  0.1975E+02
     -8.049  0.0000E+00  0.1975E+02
     -8.038  0.1023E-13  0.1975E+02
     -8.027  0.8068E-09  0.1975E+02
     -8.016  0.6488E-05  0.1975E+02
     -8.005  0.5364E-02  0.1975E+02
     -7.994  0.4830E+00  0.1976E+02
     -7.983  0.5262E+01  0.1981E+02
     -7.973  0.7883E+01  0.1990E+02
     -7.962  0.1678E+01  0.1992E+02
     -7.951  0.4569E-01  0.1992E+02
     -7.940  0.1407E-03  0.1992E+02
     -7.929  0.3278E-04  0.1992E+02
     -7.918  0.2066E-01  0.1992E+02
     -7.908  0.1434E+01  0.1993E+02
     -7.897  0.1224E+02  0.2007E+02
     -7.886  0.1453E+02  0.2022E+02
     -7.875  0.2434E+01  0.2025E+02
     -7.864  0.5133E-01  0.2025E+02
     -7.853  0.1210E-03  0.2025E+02
     -7.842  0.2970E-07  0.2025E+02
     -7.832  0.7331E-12  0.2025E+02
     -7.821  0.0000E+00  0.2025E+02
     -7.810  0.0000E+00  0.2025E+02
     -7.799  0.0000E+00  0.2025E+02
     -7.788  0.0000E+00  0.2025E+02
     -7.777  0.0000E+00  0.2025E+02
     -7.766  0.0000E+00  0.2025E+02
     -7.756  0.0000E+00  0.2025E+02
     -7.745  0.0000E+00  0.2025E+02
     -7.734  0.0000E+00  0.2025E+02
     -7.723  0.0000E+00  0.2025E+02
     -7.712  0.0000E+00  0.2025E+02
     -7.701  0.0000E+00  0.2025E+02
     -7.690  0.0000E+00  0.2025E+02
     -7.680  0.0000E+00  0.2025E+02
     -7.669  0.0000E+00  0.2025E+02
     -7.658  0.0000E+00  0.2025E+02
     -7.647  0.0000E+00  0.2025E+02
     -7.636  0.0000E+00  0.2025E+02
     -7.625  0.0000E+00  0.2025E+02
     -7.615  0.0000E+00  0.2025E+02
     -7.604  0.0000E+00  0.2025E+02
     -7.593  0.0000E+00  0.2025E+02
     -7.582  0.5115E-14  0.2025E+02
     -7.571  0.4799E-09  0.2025E+02
     -7.560  0.5060E-05  0.2025E+02
     -7.549  0.5458E-02  0.2025E+02
     -7.539  0.6356E+00  0.2026E+02
     -7.528  0.8822E+01  0.2035E+02
     -7.517  0.1662E+02  0.2053E+02
     -7.506  0.4471E+01  0.2058E+02
     -7.495  0.1563E+00  0.2058E+02
     -7.484  0.6255E-03  0.2058E+02
     -7.473  0.4731E-05  0.2058E+02
     -7.463  0.4988E-02  0.2058E+02
     -7.452  0.6007E+00  0.2059E+02
     -7.441  0.8613E+01  0.2068E+02
     -7.430  0.1756E+02  0.2087E+02
     -7.419  0.1466E+02  0.2103E+02
     -7.408  0.1622E+02  0.2121E+02
     -7.397  0.3657E+01  0.2125E+02
     -7.387  0.1070E+00  0.2125E+02
     -7.376  0.3554E-03  0.2125E+02
     -7.365  0.1240E-06  0.2125E+02
     -7.354  0.4365E-11  0.2125E+02
     -7.343  0.0000E+00  0.2125E+02
     -7.332  0.0000E+00  0.2125E+02
     -7.321  0.0000E+00  0.2125E+02
     -7.311  0.0000E+00  0.2125E+02
     -7.300  0.0000E+00  0.2125E+02
     -7.289  0.0000E+00  0.2125E+02
     -7.278  0.1023E-13  0.2125E+02
     -7.267  0.7970E-09  0.2125E+02
     -7.256  0.6428E-05  0.2125E+02
     -7.246  0.5328E-02  0.2125E+02
     -7.235  0.4810E+00  0.2126E+02
     -7.224  0.5253E+01  0.2131E+02
     -7.213  0.7889E+01  0.2140E+02
     -7.202  0.1683E+01  0.2142E+02
     -7.191  0.4595E-01  0.2142E+02
     -7.180  0.1419E-03  0.2142E+02
     -7.170  0.4593E-07  0.2142E+02
     -7.159  0.1497E-11  0.2142E+02
     -7.148  0.0000E+00  0.2142E+02
     -7.137  0.0000E+00  0.2142E+02
     -7.126  0.0000E+00  0.2142E+02
     -7.115  0.0000E+00  0.2142E+02
     -7.104  0.0000E+00  0.2142E+02
     -7.094  0.0000E+00  0.2142E+02
     -7.083  0.4262E-14  0.2142E+02
     -7.072  0.3814E-09  0.2142E+02
     -7.061  0.3629E-05  0.2142E+02
     -7.050  0.3538E-02  0.2142E+02
     -7.039  0.3737E+00  0.2142E+02
     -7.028  0.4731E+01  0.2147E+02
     -7.018  0.8173E+01  0.2156E+02
     -7.007  0.2012E+01  0.2158E+02
     -6.996  0.6399E-01  0.2158E+02
     -6.985  0.2319E-03  0.2158E+02
     -6.974  0.8847E-07  0.2158E+02
     -6.963  0.7260E-11  0.2158E+02
     -6.952  0.9752E-07  0.2158E+02
     -6.942  0.2494E-03  0.2158E+02
     -6.931  0.6719E-01  0.2158E+02
     -6.920  0.2065E+01  0.2161E+02
     -6.909  0.8224E+01  0.2170E+02
     -6.898  0.5554E+01  0.2176E+02
     -6.887  0.6981E+01  0.2183E+02