 vasp.5.4.4.18Apr17-6-g9f103f2a35 (build Jun 20 2017 18:00:50) complex          
  
 executed on             LinuxIFC date 2018.03.16  16:01:55
 running on   32 total cores
 distrk:  each k-point on   32 cores,    1 groups
 distr:  one band on NCORES_PER_BAND=   8 cores,    4 groups


--------------------------------------------------------------------------------------------------------


 INCAR:
 POTCAR:    PAW_PBE P 06Sep2000                   
 POTCAR:    PAW_PBE P 06Sep2000                   
   VRHFIN =P : s2p3                                                             
   LEXCH  = PE                                                                  
   EATOM  =   176.0430 eV,   12.9388 Ry                                         
                                                                                
   TITEL  = PAW_PBE P 06Sep2000                                                 
   LULTRA =        F    use ultrasoft PP ?                                      
   IUNSCR =        1    unscreen: 0-lin 1-nonlin 2-no                           
   RPACOR =    1.500    partial core radius                                     
   POMASS =   30.974; ZVAL   =    5.000    mass and valenz                      
   RCORE  =    1.900    outmost cutoff radius                                   
   RWIGS  =    2.330; RWIGS  =    1.233    wigner-seitz radius (au A)           
   ENMAX  =  255.040; ENMIN  =  191.280 eV                                      
   ICORE  =        2    local potential                                         
   LCOR   =        T    correct aug charges                                     
   LPAW   =        T    paw PP                                                  
   EAUG   =  342.924                                                            
   DEXC   =    0.000                                                            
   RMAX   =    1.935    core radius for proj-oper                               
   RAUG   =    1.300    factor for augmentation sphere                          
   RDEP   =    1.931    radius for radial grids                                 
   RDEPT  =    1.794    core radius for aug-charge                              
                                                                                
   Atomic configuration                                                         
    6 entries                                                                   
     n  l   j            E        occ.                                          
     1  0  0.50     -2084.0982   2.0000                                         
     2  0  0.50      -173.9859   2.0000                                         
     2  1  1.50      -124.4865   6.0000                                         
     3  0  0.50       -13.9692   2.0000                                         
     3  1  0.50        -5.5067   3.0000                                         
     3  2  1.50        -5.4423   0.0000                                         
   Description                                                                  
     l       E           TYP  RCUT    TYP  RCUT                                 
     0    -13.9691527     23  1.900                                             
     0    -11.7794650     23  1.900                                             
     1     -5.5066937     23  1.900                                             
     1     -0.2556953     23  1.900                                             
     2     -5.4423304     23  1.900                                             
  local pseudopotential read in
  partial core-charges read in
  partial kinetic energy density read in
  atomic valenz-charges read in
  non local Contribution for L=           0  read in
    real space projection operators read in
  non local Contribution for L=           0  read in
    real space projection operators read in
  non local Contribution for L=           1  read in
    real space projection operators read in
  non local Contribution for L=           1  read in
    real space projection operators read in
    PAW grid and wavefunctions read in
 
   number of l-projection  operators is LMAX  =           4
   number of lm-projection operators is LMMAX =           8
 
  PAW_PBE P 06Sep2000                   :
 energy of atom  1       EATOM= -176.0430
 kinetic energy error for atom=    0.0013 (will be added to EATOM!!)
 
 
 POSCAR: P12                                     
  positions in direct lattice
  No initial velocities read in
 exchange correlation table for  LEXCH =        8
   RHO(1)=    0.500       N(1)  =     2000
   RHO(2)=  100.500       N(2)  =     4000
 


--------------------------------------------------------------------------------------------------------


 ion  position               nearest neighbor table
   1  0.000  0.307  0.919-   2 2.23   2 2.23   3 2.26
   2  0.500  0.307  0.581-   1 2.23   1 2.23   4 2.26
   3  0.000  0.372  0.081-   4 2.23   4 2.23   1 2.26
   4  0.500  0.372  0.419-   3 2.23   3 2.23   2 2.26
   5  0.500  0.467  0.919-   6 2.23   6 2.23   7 2.26
   6  0.000  0.467  0.581-   5 2.23   5 2.23   8 2.26
   7  0.500  0.533  0.081-   8 2.23   8 2.23   5 2.26
   8  0.000  0.533  0.419-   7 2.23   7 2.23   6 2.26
   9  0.000  0.628  0.919-  10 2.23  10 2.23  11 2.26
  10  0.500  0.628  0.581-   9 2.23   9 2.23  12 2.26
  11  0.000  0.693  0.081-  12 2.23  12 2.23   9 2.26
  12  0.500  0.693  0.419-  11 2.23  11 2.23  10 2.26
 
  LATTYP: Found a simple orthorhombic cell.
 ALAT       =     3.3428860000
 B/A-ratio  =     1.3086988309
 C/A-ratio  =     9.7527732026
  
  Lattice vectors:
  
 A1 = (  -3.3428860000,   0.0000000000,   0.0000000000)
 A2 = (   0.0000000000,   0.0000000000,  -4.3748310000)
 A3 = (   0.0000000000, -32.6024090000,   0.0000000000)


Analysis of symmetry for initial positions (statically):
=====================================================================
 Subroutine PRICEL returns:
 Original cell was already a primitive cell.
 

 Routine SETGRP: Setting up the symmetry group for a 
 simple orthorhombic supercell.


 Subroutine GETGRP returns: Found  8 space group operations
 (whereof  4 operations were pure point group operations)
 out of a pool of  8 trial point group operations.


The static configuration has the point symmetry C_2h.
 The point group associated with its full space group is D_2h.


Analysis of symmetry for dynamics (positions and initial velocities):
=====================================================================
 Subroutine PRICEL returns:
 Original cell was already a primitive cell.
 

 Routine SETGRP: Setting up the symmetry group for a 
 simple orthorhombic supercell.


 Subroutine GETGRP returns: Found  8 space group operations
 (whereof  4 operations were pure point group operations)
 out of a pool of  8 trial point group operations.


The dynamic configuration has the point symmetry C_2h.
 The point group associated with its full space group is D_2h.


 Subroutine INISYM returns: Found  8 space group operations
 (whereof  4 operations are pure point group operations),
 and found     1 'primitive' translations

 
 
 KPOINTS: Automatic mesh                          

Automatic generation of k-mesh.
Space group operators:
 irot       det(A)        alpha          n_x          n_y          n_z        tau_x        tau_y        tau_z
    1     1.000000     0.000001     1.000000     0.000000     0.000000     0.000000     0.000000     0.000000
    2    -1.000000     0.000001     1.000000     0.000000     0.000000     0.000000     0.000000     0.000000
    3     1.000000   179.999999     1.000000     0.000000     0.000000     0.000000     0.000000     0.000000
    4    -1.000000   179.999999     1.000000     0.000000     0.000000     0.000000     0.000000     0.000000
    5     1.000000   179.999999     0.000000     1.000000     0.000000    -0.500000     0.000000    -0.500000
    6    -1.000000   179.999999     0.000000     1.000000     0.000000    -0.500000     0.000000    -0.500000
    7     1.000000   179.999999     0.000000     0.000000     1.000000    -0.500000     0.000000    -0.500000
    8    -1.000000   179.999999     0.000000     0.000000     1.000000    -0.500000     0.000000    -0.500000
 
 Subroutine IBZKPT returns following result:
 ===========================================
 
 Found     12 irreducible k-points:
 
 Following reciprocal coordinates:
            Coordinates               Weight
  0.000000  0.000000  0.000000      1.000000
  0.166667  0.000000  0.000000      2.000000
  0.333333  0.000000  0.000000      2.000000
  0.500000  0.000000  0.000000      1.000000
  0.000000  0.000000  0.250000      2.000000
  0.166667  0.000000  0.250000      4.000000
  0.333333  0.000000  0.250000      4.000000
  0.500000  0.000000  0.250000      2.000000
  0.000000  0.000000  0.500000      1.000000
  0.166667  0.000000  0.500000      2.000000
  0.333333  0.000000  0.500000      2.000000
  0.500000  0.000000  0.500000      1.000000
 
 Following cartesian coordinates:
            Coordinates               Weight
  0.000000  0.000000  0.000000      1.000000
  0.049857  0.000000  0.000000      2.000000
  0.099714  0.000000  0.000000      2.000000
  0.149571  0.000000  0.000000      1.000000
  0.000000  0.000000  0.057145      2.000000
  0.049857  0.000000  0.057145      4.000000
  0.099714  0.000000  0.057145      4.000000
  0.149571  0.000000  0.057145      2.000000
  0.000000  0.000000  0.114290      1.000000
  0.049857  0.000000  0.114290      2.000000
  0.099714  0.000000  0.114290      2.000000
  0.149571  0.000000  0.114290      1.000000
 


--------------------------------------------------------------------------------------------------------




 Dimension of arrays:
   k-points           NKPTS =     12   k-points in BZ     NKDIM =     12   number of bands    NBANDS=     40
   number of dos      NEDOS =   2000   number of ions     NIONS =     12
   non local maximal  LDIM  =      4   non local SUM 2l+1 LMDIM =      8
   total plane-waves  NPLWV =  77760
   max r-space proj   IRMAX =      1   max aug-charges    IRDMAX=   5162
   dimension x,y,z NGX =    18 NGY =  180 NGZ =   24
   dimension x,y,z NGXF=    36 NGYF=  360 NGZF=   48
   support grid    NGXF=    36 NGYF=  360 NGZF=   48
   ions per type =              12
   NGX,Y,Z   is equivalent  to a cutoff of   8.95,  9.18,  9.12 a.u.
   NGXF,Y,Z  is equivalent  to a cutoff of  17.90, 18.36, 18.24 a.u.

 SYSTEM =  Generic Input                           
 POSCAR =  P12                                     

 Startparameter for this run:
   NWRITE =      2    write-flag & timer
   PREC   = normal    normal or accurate (medium, high low for compatibility)
   ISTART =      0    job   : 0-new  1-cont  2-samecut
   ICHARG =      2    charge: 1-file 2-atom 10-const
   ISPIN  =      1    spin polarized calculation?
   LNONCOLLINEAR =      F non collinear calculations
   LSORBIT =      F    spin-orbit coupling
   INIWAV =      1    electr: 0-lowe 1-rand  2-diag
   LASPH  =      T    aspherical Exc in radial PAW
   METAGGA=      F    non-selfconsistent MetaGGA calc.

 Electronic Relaxation 1
   ENCUT  =  500.0 eV  36.75 Ry    6.06 a.u.   6.09 59.44  7.98*2*pi/ulx,y,z
   ENINI  =  500.0     initial cutoff
   ENAUG  =  342.9 eV  augmentation charge cutoff
   NELM   =    200;   NELMIN=  2; NELMDL=  0     # of ELM steps 
   EDIFF  = 0.1E-04   stopping-criterion for ELM
   LREAL  =      F    real-space projection
   NLSPLINE    = F    spline interpolate recip. space projectors
   LCOMPAT=      F    compatible to vasp.4.4
   GGA_COMPAT  = T    GGA compatible to vasp.4.4-vasp.4.6
   LMAXPAW     = -100 max onsite density
   LMAXMIX     =    2 max onsite mixed and CHGCAR
   VOSKOWN=      0    Vosko Wilk Nusair interpolation
   ROPT   =    0.00000
 Ionic relaxation
   EDIFFG = -.2E-01   stopping-criterion for IOM
   NSW    =      0    number of steps for IOM
   NBLOCK =      1;   KBLOCK =      1    inner block; outer block 
   IBRION =     -1    ionic relax: 0-MD 1-quasi-New 2-CG
   NFREE  =      1    steps in history (QN), initial steepest desc. (CG)
   ISIF   =      3    stress and relaxation
   IWAVPR =     11    prediction:  0-non 1-charg 2-wave 3-comb
   ISYM   =      2    0-nonsym 1-usesym 2-fastsym
   LCORR  =      T    Harris-Foulkes like correction to forces

   POTIM  = 0.5000    time-step for ionic-motion
   TEIN   =    0.0    initial temperature
   TEBEG  =    0.0;   TEEND  =   0.0 temperature during run
   SMASS  =  -3.00    Nose mass-parameter (am)
   estimated Nose-frequenzy (Omega)   =  0.10E-29 period in steps =****** mass=  -0.255E-27a.u.
   SCALEE = 1.0000    scale energy and forces
   NPACO  =    256;   APACO  = 16.0  distance and # of slots for P.C.
   PSTRESS=    0.0 pullay stress

  Mass of Ions in am
   POMASS =  30.97
  Ionic Valenz
   ZVAL   =   5.00
  Atomic Wigner-Seitz radii
   RWIGS  =  -1.00
  virtual crystal weights 
   VCA    =   1.00
   NELECT =      60.0000    total number of electrons
   NUPDOWN=      -1.0000    fix difference up-down

 DOS related values:
   EMIN   =  10.00;   EMAX   =-10.00  energy-range for DOS
   EFERMI =   0.00
   ISMEAR =     0;   SIGMA  =   0.01  broadening in eV -4-tet -1-fermi 0-gaus

 Electronic relaxation 2 (details)
   IALGO  =     38    algorithm
   LDIAG  =      T    sub-space diagonalisation (order eigenvalues)
   LSUBROT=      F    optimize rotation matrix (better conditioning)
   TURBO    =      0    0=normal 1=particle mesh
   IRESTART =      0    0=no restart 2=restart with 2 vectors
   NREBOOT  =      0    no. of reboots
   NMIN     =      0    reboot dimension
   EREF     =   0.00    reference energy to select bands
   IMIX   =      4    mixing-type and parameters
     AMIX     =   0.40;   BMIX     =  1.00
     AMIX_MAG =   1.60;   BMIX_MAG =  1.00
     AMIN     =   0.10
     WC   =   100.;   INIMIX=   1;  MIXPRE=   1;  MAXMIX= -45

 Intra band minimization:
   WEIMIN = 0.0000     energy-eigenvalue tresh-hold
   EBREAK =  0.63E-07  absolut break condition
   DEPER  =   0.30     relativ break condition  

   TIME   =   0.40     timestep for ELM

  volume/ion in A,a.u.               =      39.73       268.13
  Fermi-wavevector in a.u.,A,eV,Ry     =   0.820379  1.550291  9.157011  0.673021
  Thomas-Fermi vector in A             =   1.931350
 
 Write flags
   LWAVE        =      T    write WAVECAR
   LDOWNSAMPLE  =      F    k-point downsampling of WAVECAR
   LCHARG       =      T    write CHGCAR
   LVTOT        =      F    write LOCPOT, total local potential
   LVHAR        =      T    write LOCPOT, Hartree potential only
   LELF         =      F    write electronic localiz. function (ELF)
   LORBIT       =     11    0 simple, 1 ext, 2 COOP (PROOUT), +10 PAW based schemes


 Dipole corrections
   LMONO  =      F    monopole corrections only (constant potential shift)
   LDIPOL =      F    correct potential (dipole corrections)
   IDIPOL =      0    1-x, 2-y, 3-z, 4-all directions 
   EPSILON=  1.0000000 bulk dielectric constant

 Core level calculations are selected ICORELEVEL =  1
 Exchange correlation treatment:
   GGA     =    PE    GGA type
   LEXCH   =     8    internal setting for exchange type
   VOSKOWN=      0    Vosko Wilk Nusair interpolation
   LHFCALC =     F    Hartree Fock is set to
   LHFONE  =     F    Hartree Fock one center treatment
   AEXX    =    0.0000 exact exchange contribution

 Linear response parameters
   LEPSILON=     F    determine dielectric tensor
   LRPA    =     F    only Hartree local field effects (RPA)
   LNABLA  =     F    use nabla operator in PAW spheres
   LVEL    =     F    velocity operator in full k-point grid
   LINTERFAST=   F  fast interpolation
   KINTER  =     0    interpolate to denser k-point grid
   CSHIFT  =0.1000    complex shift for real part using Kramers Kronig
   OMEGAMAX=  -1.0    maximum frequency
   DEG_THRESHOLD= 0.2000000E-02 threshold for treating states as degnerate
   RTIME   =   -0.100 relaxation time in fs
  (WPLASMAI=    0.000 imaginary part of plasma frequency in eV, 0.658/RTIME)
   DFIELD  = 0.0000000 0.0000000 0.0000000 field for delta impulse in time
 
 Orbital magnetization related:
   ORBITALMAG=     F  switch on orbital magnetization
   LCHIMAG   =     F  perturbation theory with respect to B field
   DQ        =  0.001000  dq finite difference perturbation B field
   LLRAUG    =     F  two centre corrections for induced B field



--------------------------------------------------------------------------------------------------------


 Static calculation
 charge density and potential will be updated during run
 non-spin polarized calculation
 Variant of blocked Davidson
 Davidson routine will perform the subspace rotation
 perform sub-space diagonalisation
    after iterative eigenvector-optimisation
 modified Broyden-mixing scheme, WC =      100.0
 initial mixing is a Kerker type mixing with AMIX =  0.4000 and BMIX =      1.0000
 Hartree-type preconditioning will be used
 using additional bands           10
 reciprocal scheme for non local part
 use partial core corrections
 calculate Harris-corrections to forces 
   (improved forces if not selfconsistent)
 use gradient corrections 
 use of overlap-Matrix (Vanderbilt PP)
 Gauss-broadening in eV      SIGMA  =   0.01


--------------------------------------------------------------------------------------------------------


  energy-cutoff  :      500.00
  volume of cell :      476.80
      direct lattice vectors                 reciprocal lattice vectors
     3.342886000  0.000000000  0.000000000     0.299142717  0.000000000  0.000000000
     0.000000000 32.602409000  0.000000000     0.000000000  0.030672580  0.000000000
     0.000000000  0.000000000  4.374831000     0.000000000  0.000000000  0.228580258

  length of vectors
     3.342886000 32.602409000  4.374831000     0.299142717  0.030672580  0.228580258


 
 k-points in units of 2pi/SCALE and weight: Automatic mesh                          
   0.00000000  0.00000000  0.00000000       0.042
   0.04985712  0.00000000  0.00000000       0.083
   0.09971424  0.00000000  0.00000000       0.083
   0.14957136  0.00000000  0.00000000       0.042
   0.00000000  0.00000000  0.05714506       0.083
   0.04985712  0.00000000  0.05714506       0.167
   0.09971424  0.00000000  0.05714506       0.167
   0.14957136  0.00000000  0.05714506       0.083
   0.00000000  0.00000000  0.11429013       0.042
   0.04985712  0.00000000  0.11429013       0.083
   0.09971424  0.00000000  0.11429013       0.083
   0.14957136  0.00000000  0.11429013       0.042
 
 k-points in reciprocal lattice and weights: Automatic mesh                          
   0.00000000  0.00000000  0.00000000       0.042
   0.16666667  0.00000000  0.00000000       0.083
   0.33333333  0.00000000  0.00000000       0.083
   0.50000000  0.00000000  0.00000000       0.042
   0.00000000  0.00000000  0.25000000       0.083
   0.16666667  0.00000000  0.25000000       0.167
   0.33333333  0.00000000  0.25000000       0.167
   0.50000000  0.00000000  0.25000000       0.083
   0.00000000  0.00000000  0.50000000       0.042
   0.16666667  0.00000000  0.50000000       0.083
   0.33333333  0.00000000  0.50000000       0.083
   0.50000000  0.00000000  0.50000000       0.042
 
 position of ions in fractional coordinates (direct lattice) 
   0.00000000  0.30672600  0.91892400
   0.50000000  0.30672600  0.58107600
   0.00000000  0.37246700  0.08107600
   0.50000000  0.37246700  0.41892400
   0.50000000  0.46712900  0.91892400
   0.00000000  0.46712900  0.58107600
   0.50000000  0.53287100  0.08107600
   0.00000000  0.53287100  0.41892400
   0.00000000  0.62753300  0.91892400
   0.50000000  0.62753300  0.58107600
   0.00000000  0.69327400  0.08107600
   0.50000000  0.69327400  0.41892400
 
 position of ions in cartesian coordinates  (Angst):
   0.00000000 10.00000650  4.02013720
   1.67144300 10.00000650  2.54210930
   0.00000000 12.14332147  0.35469380
   1.67144300 12.14332147  1.83272170
   1.67144300 15.22953071  4.02013720
   0.00000000 15.22953071  2.54210930
   1.67144300 17.37287829  0.35469380
   0.00000000 17.37287829  1.83272170
   0.00000000 20.45908753  4.02013720
   1.67144300 20.45908753  2.54210930
   0.00000000 22.60240250  0.35469380
   1.67144300 22.60240250  1.83272170
 


--------------------------------------------------------------------------------------------------------


 k-point  1 :   0.0000 0.0000 0.0000  plane waves:   11989
 k-point  2 :   0.1667 0.0000 0.0000  plane waves:   12048
 k-point  3 :   0.3333 0.0000 0.0000  plane waves:   12090
 k-point  4 :   0.5000 0.0000 0.0000  plane waves:   12172
 k-point  5 :   0.0000 0.0000 0.2500  plane waves:   12082
 k-point  6 :   0.1667 0.0000 0.2500  plane waves:   12107
 k-point  7 :   0.3333 0.0000 0.2500  plane waves:   12127
 k-point  8 :   0.5000 0.0000 0.2500  plane waves:   12146
 k-point  9 :   0.0000 0.0000 0.5000  plane waves:   12108
 k-point 10 :   0.1667 0.0000 0.5000  plane waves:   12144
 k-point 11 :   0.3333 0.0000 0.5000  plane waves:   12162
 k-point 12 :   0.5000 0.0000 0.5000  plane waves:   12112

 maximum and minimum number of plane-waves per node :      1542     1474

 maximum number of plane-waves:     12172
 maximum index in each direction: 
   IXMAX=    6   IYMAX=   59   IZMAX=    7
   IXMIN=   -6   IYMIN=  -59   IZMIN=   -8


 parallel 3D FFT for wavefunctions:
    minimum data exchange during FFTs selected (reduces bandwidth)
 parallel 3D FFT for charge:
    minimum data exchange during FFTs selected (reduces bandwidth)


 total amount of memory used by VASP MPI-rank0    38138. kBytes
=======================================================================

   base      :      30000. kBytes
   nonl-proj :       1466. kBytes
   fftplans  :       1470. kBytes
   grid      :       2232. kBytes
   one-center:          6. kBytes
   wavefun   :       2964. kBytes
 
     INWAV:  cpu time    0.0000: real time    0.0000
 Broyden mixing: mesh for mixing (old mesh)
   NGX = 13   NGY =119   NGZ = 15
  (NGX  = 36   NGY  =360   NGZ  = 48)
  gives a total of  23205 points

 initial charge density was supplied:
 charge density of overlapping atoms calculated
 number of electron      60.0000000 magnetization 
 keeping initial charge density in first step


--------------------------------------------------------------------------------------------------------


 Maximum index for augmentation-charges          651 (set IRDMAX)


--------------------------------------------------------------------------------------------------------


 First call to EWALD:  gamma=   0.227
 Maximum number of real-space cells 6x 1x 5
 Maximum number of reciprocal cells 1x10x 2

    FEWALD:  cpu time    0.0017: real time    0.0017


--------------------------------------- Iteration      1(   1)  ---------------------------------------


    POTLOK:  cpu time    0.0320: real time    0.0445
    SETDIJ:  cpu time    0.0642: real time    0.0643
     EDDAV:  cpu time    0.6114: real time    0.6127
       DOS:  cpu time    0.0005: real time    0.0005
    --------------------------------------------
      LOOP:  cpu time    0.7081: real time    0.7220

 eigenvalue-minimisations  :   960
 total energy-change (2. order) : 0.3775621E+03  (-0.2159197E+04)
 number of electron      60.0000000 magnetization 
 augmentation part       60.0000000 magnetization 

 Free energy of the ion-electron system (eV)
  ---------------------------------------------------
  alpha Z        PSCENC =        30.28014394
  Ewald energy   TEWEN  =     14973.24208224
  -Hartree energ DENC   =    -16928.93300519
  -exchange      EXHF   =         0.00000000
  -V(xc)+E(xc)   XCENC  =        40.33409660
  PAW double counting   =      1677.12035881    -1579.18296132
  entropy T*S    EENTRO =        -0.00000017
  eigenvalues    EBANDS =        52.20042588
  atomic energy  EATOM  =      2112.50091676
  Solvation  Ediel_sol  =         0.00000000
  ---------------------------------------------------
  free energy    TOTEN  =       377.56205755 eV

  energy without entropy =      377.56205773  energy(sigma->0) =      377.56205764


--------------------------------------------------------------------------------------------------------




--------------------------------------- Iteration      1(   2)  ---------------------------------------


     EDDAV:  cpu time    0.7786: real time    0.7805
       DOS:  cpu time    0.0005: real time    0.0005
    --------------------------------------------
      LOOP:  cpu time    0.7792: real time    0.7811

 eigenvalue-minimisations  :  1368
 total energy-change (2. order) :-0.3998167E+03  (-0.3881892E+03)
 number of electron      60.0000000 magnetization 
 augmentation part       60.0000000 magnetization 

 Free energy of the ion-electron system (eV)
  ---------------------------------------------------
  alpha Z        PSCENC =        30.28014394
  Ewald energy   TEWEN  =     14973.24208224
  -Hartree energ DENC   =    -16928.93300519
  -exchange      EXHF   =         0.00000000
  -V(xc)+E(xc)   XCENC  =        40.33409660
  PAW double counting   =      1677.12035881    -1579.18296132
  entropy T*S    EENTRO =        -0.00047016
  eigenvalues    EBANDS =      -347.61583800
  atomic energy  EATOM  =      2112.50091676
  Solvation  Ediel_sol  =         0.00000000
  ---------------------------------------------------
  free energy    TOTEN  =       -22.25467632 eV

  energy without entropy =      -22.25420616  energy(sigma->0) =      -22.25444124


--------------------------------------------------------------------------------------------------------




--------------------------------------- Iteration      1(   3)  ---------------------------------------


     EDDAV:  cpu time    0.6791: real time    0.6816
       DOS:  cpu time    0.0004: real time    0.0004
    --------------------------------------------
      LOOP:  cpu time    0.6795: real time    0.6819

 eigenvalue-minimisations  :  1128
 total energy-change (2. order) :-0.4102240E+02  (-0.4051341E+02)
 number of electron      60.0000000 magnetization 
 augmentation part       60.0000000 magnetization 

 Free energy of the ion-electron system (eV)
  ---------------------------------------------------
  alpha Z        PSCENC =        30.28014394
  Ewald energy   TEWEN  =     14973.24208224
  -Hartree energ DENC   =    -16928.93300519
  -exchange      EXHF   =         0.00000000
  -V(xc)+E(xc)   XCENC  =        40.33409660
  PAW double counting   =      1677.12035881    -1579.18296132
  entropy T*S    EENTRO =        -0.00000000
  eigenvalues    EBANDS =      -388.63870785
  atomic energy  EATOM  =      2112.50091676
  Solvation  Ediel_sol  =         0.00000000
  ---------------------------------------------------
  free energy    TOTEN  =       -63.27707601 eV

  energy without entropy =      -63.27707601  energy(sigma->0) =      -63.27707601


--------------------------------------------------------------------------------------------------------




--------------------------------------- Iteration      1(   4)  ---------------------------------------


     EDDAV:  cpu time    0.8879: real time    0.9059
       DOS:  cpu time    0.0004: real time    0.0004
    --------------------------------------------
      LOOP:  cpu time    0.8883: real time    0.9063

 eigenvalue-minimisations  :  1416
 total energy-change (2. order) :-0.1492058E+01  (-0.1481458E+01)
 number of electron      60.0000000 magnetization 
 augmentation part       60.0000000 magnetization 

 Free energy of the ion-electron system (eV)
  ---------------------------------------------------
  alpha Z        PSCENC =        30.28014394
  Ewald energy   TEWEN  =     14973.24208224
  -Hartree energ DENC   =    -16928.93300519
  -exchange      EXHF   =         0.00000000
  -V(xc)+E(xc)   XCENC  =        40.33409660
  PAW double counting   =      1677.12035881    -1579.18296132
  entropy T*S    EENTRO =        -0.00000000
  eigenvalues    EBANDS =      -390.13076548
  atomic energy  EATOM  =      2112.50091676
  Solvation  Ediel_sol  =         0.00000000
  ---------------------------------------------------
  free energy    TOTEN  =       -64.76913364 eV

  energy without entropy =      -64.76913364  energy(sigma->0) =      -64.76913364


--------------------------------------------------------------------------------------------------------




--------------------------------------- Iteration      1(   5)  ---------------------------------------


     EDDAV:  cpu time    0.8274: real time    0.8297
       DOS:  cpu time    0.0004: real time    0.0004
    CHARGE:  cpu time    0.0379: real time    0.0379
    MIXING:  cpu time    0.0007: real time    0.0008
    --------------------------------------------
      LOOP:  cpu time    0.8664: real time    0.8687

 eigenvalue-minimisations  :  1480
 total energy-change (2. order) :-0.4324319E-01  (-0.4321308E-01)
 number of electron      59.9999987 magnetization 
 augmentation part       -6.5204188 magnetization 

 Broyden mixing:
  rms(total) = 0.17533E+01    rms(broyden)= 0.17533E+01
  rms(prec ) = 0.17588E+01
  weight for this iteration     100.00

 Free energy of the ion-electron system (eV)
  ---------------------------------------------------
  alpha Z        PSCENC =        30.28014394
  Ewald energy   TEWEN  =     14973.24208224
  -Hartree energ DENC   =    -16928.93300519
  -exchange      EXHF   =         0.00000000
  -V(xc)+E(xc)   XCENC  =        40.33409660
  PAW double counting   =      1677.12035881    -1579.18296132
  entropy T*S    EENTRO =        -0.00000000
  eigenvalues    EBANDS =      -390.17400868
  atomic energy  EATOM  =      2112.50091676
  Solvation  Ediel_sol  =         0.00000000
  ---------------------------------------------------
  free energy    TOTEN  =       -64.81237683 eV

  energy without entropy =      -64.81237683  energy(sigma->0) =      -64.81237683


--------------------------------------------------------------------------------------------------------




--------------------------------------- Iteration      1(   6)  ---------------------------------------


    POTLOK:  cpu time    0.0196: real time    0.0210
    SETDIJ:  cpu time    0.0645: real time    0.0645
     EDDAV:  cpu time    0.7522: real time    0.7531
       DOS:  cpu time    0.0004: real time    0.0004
    CHARGE:  cpu time    0.0372: real time    0.0372
    MIXING:  cpu time    0.0007: real time    0.0007
    --------------------------------------------
      LOOP:  cpu time    0.8746: real time    0.8768

 eigenvalue-minimisations  :  1248
 total energy-change (2. order) : 0.3247230E+00  (-0.1989877E-01)
 number of electron      59.9999987 magnetization 
 augmentation part       -6.4821989 magnetization 

 Broyden mixing:
  rms(total) = 0.10400E+01    rms(broyden)= 0.10400E+01
  rms(prec ) = 0.10432E+01
  weight for this iteration     100.00

 eigenvalues of (default mixing * dielectric matrix)
  average eigenvalue GAMMA=   2.4498
  2.4498

 Free energy of the ion-electron system (eV)
  ---------------------------------------------------
  alpha Z        PSCENC =        30.28014394
  Ewald energy   TEWEN  =     14973.24208224
  -Hartree energ DENC   =    -16941.13953673
  -exchange      EXHF   =         0.00000000
  -V(xc)+E(xc)   XCENC  =        41.37709298
  PAW double counting   =      3131.93624055    -3034.46147794
  entropy T*S    EENTRO =        -0.00000000
  eigenvalues    EBANDS =      -378.22311566
  atomic energy  EATOM  =      2112.50091676
  Solvation  Ediel_sol  =         0.00000000
  ---------------------------------------------------
  free energy    TOTEN  =       -64.48765387 eV

  energy without entropy =      -64.48765387  energy(sigma->0) =      -64.48765387


--------------------------------------------------------------------------------------------------------




--------------------------------------- Iteration      1(   7)  ---------------------------------------


    POTLOK:  cpu time    0.0204: real time    0.0205
    SETDIJ:  cpu time    0.0654: real time    0.0654
     EDDAV:  cpu time    0.6996: real time    0.7004
       DOS:  cpu time    0.0005: real time    0.0005
    CHARGE:  cpu time    0.0375: real time    0.0375
    MIXING:  cpu time    0.0007: real time    0.0007
    --------------------------------------------
      LOOP:  cpu time    0.8240: real time    0.8249

 eigenvalue-minimisations  :  1184
 total energy-change (2. order) : 0.1488795E+00  (-0.3610654E-01)
 number of electron      59.9999987 magnetization 
 augmentation part       -6.4357220 magnetization 

 Broyden mixing:
  rms(total) = 0.43549E-01    rms(broyden)= 0.43548E-01
  rms(prec ) = 0.44881E-01
  weight for this iteration     100.00

 eigenvalues of (default mixing * dielectric matrix)
  average eigenvalue GAMMA=   2.0515
  1.5778  2.5252

 Free energy of the ion-electron system (eV)
  ---------------------------------------------------
  alpha Z        PSCENC =        30.28014394
  Ewald energy   TEWEN  =     14973.24208224
  -Hartree energ DENC   =    -16959.83451846
  -exchange      EXHF   =         0.00000000
  -V(xc)+E(xc)   XCENC  =        43.06914730
  PAW double counting   =      6244.15370233    -6147.24545969
  entropy T*S    EENTRO =        -0.00000025
  eigenvalues    EBANDS =      -360.50478849
  atomic energy  EATOM  =      2112.50091676
  Solvation  Ediel_sol  =         0.00000000
  ---------------------------------------------------
  free energy    TOTEN  =       -64.33877432 eV

  energy without entropy =      -64.33877407  energy(sigma->0) =      -64.33877420


--------------------------------------------------------------------------------------------------------




--------------------------------------- Iteration      1(   8)  ---------------------------------------


    POTLOK:  cpu time    0.0192: real time    0.0207
    SETDIJ:  cpu time    0.0646: real time    0.0646
     EDDAV:  cpu time    0.7423: real time    0.7432
       DOS:  cpu time    0.0005: real time    0.0005
    CHARGE:  cpu time    0.0374: real time    0.0374
    MIXING:  cpu time    0.0007: real time    0.0007
    --------------------------------------------
      LOOP:  cpu time    0.8647: real time    0.8672

 eigenvalue-minimisations  :  1256
 total energy-change (2. order) : 0.2723820E-03  (-0.3199721E-02)
 number of electron      59.9999987 magnetization 
 augmentation part       -6.4460184 magnetization 

 Broyden mixing:
  rms(total) = 0.23217E-01    rms(broyden)= 0.23217E-01
  rms(prec ) = 0.23906E-01
  weight for this iteration     100.00

 eigenvalues of (default mixing * dielectric matrix)
  average eigenvalue GAMMA=   1.6027
  2.5253  1.1413  1.1413

 Free energy of the ion-electron system (eV)
  ---------------------------------------------------
  alpha Z        PSCENC =        30.28014394
  Ewald energy   TEWEN  =     14973.24208224
  -Hartree energ DENC   =    -16961.04701496
  -exchange      EXHF   =         0.00000000
  -V(xc)+E(xc)   XCENC  =        43.09842600
  PAW double counting   =      6346.45853140    -6249.47770491
  entropy T*S    EENTRO =        -0.00000007
  eigenvalues    EBANDS =      -359.39388235
  atomic energy  EATOM  =      2112.50091676
  Solvation  Ediel_sol  =         0.00000000
  ---------------------------------------------------
  free energy    TOTEN  =       -64.33850194 eV

  energy without entropy =      -64.33850187  energy(sigma->0) =      -64.33850191


--------------------------------------------------------------------------------------------------------




--------------------------------------- Iteration      1(   9)  ---------------------------------------


    POTLOK:  cpu time    0.0191: real time    0.0208
    SETDIJ:  cpu time    0.0646: real time    0.0646
     EDDAV:  cpu time    0.7977: real time    0.7986
       DOS:  cpu time    0.0005: real time    0.0005
    CHARGE:  cpu time    0.0392: real time    0.0393
    MIXING:  cpu time    0.0007: real time    0.0007
    --------------------------------------------
      LOOP:  cpu time    0.9218: real time    0.9245

 eigenvalue-minimisations  :  1408
 total energy-change (2. order) : 0.3739141E-04  (-0.1730554E-03)
 number of electron      59.9999987 magnetization 
 augmentation part       -6.4463296 magnetization 

 Broyden mixing:
  rms(total) = 0.19401E-01    rms(broyden)= 0.19401E-01
  rms(prec ) = 0.19994E-01
  weight for this iteration     100.00

 eigenvalues of (default mixing * dielectric matrix)
  average eigenvalue GAMMA=   1.8395
  2.2783  2.2783  1.4007  1.4007

 Free energy of the ion-electron system (eV)
  ---------------------------------------------------
  alpha Z        PSCENC =        30.28014394
  Ewald energy   TEWEN  =     14973.24208224
  -Hartree energ DENC   =    -16961.84378934
  -exchange      EXHF   =         0.00000000
  -V(xc)+E(xc)   XCENC  =        43.10819368
  PAW double counting   =      6347.69561644    -6250.70767815
  entropy T*S    EENTRO =        -0.00000006
  eigenvalues    EBANDS =      -358.61395005
  atomic energy  EATOM  =      2112.50091676
  Solvation  Ediel_sol  =         0.00000000
  ---------------------------------------------------
  free energy    TOTEN  =       -64.33846455 eV

  energy without entropy =      -64.33846448  energy(sigma->0) =      -64.33846452


--------------------------------------------------------------------------------------------------------




--------------------------------------- Iteration      1(  10)  ---------------------------------------


    POTLOK:  cpu time    0.0211: real time    0.0213
    SETDIJ:  cpu time    0.0644: real time    0.0644
     EDDAV:  cpu time    0.7200: real time    0.7209
       DOS:  cpu time    0.0006: real time    0.0006
    CHARGE:  cpu time    0.0377: real time    0.0377
    MIXING:  cpu time    0.0008: real time    0.0008
    --------------------------------------------
      LOOP:  cpu time    0.8445: real time    0.8456

 eigenvalue-minimisations  :  1216
 total energy-change (2. order) : 0.2535361E-03  (-0.3928711E-04)
 number of electron      59.9999987 magnetization 
 augmentation part       -6.4476041 magnetization 

 Broyden mixing:
  rms(total) = 0.14668E-01    rms(broyden)= 0.14668E-01
  rms(prec ) = 0.15137E-01
  weight for this iteration     100.00

 eigenvalues of (default mixing * dielectric matrix)
  average eigenvalue GAMMA=   1.7749
  2.5334  2.5334  1.5689  1.1195  1.1195

 Free energy of the ion-electron system (eV)
  ---------------------------------------------------
  alpha Z        PSCENC =        30.28014394
  Ewald energy   TEWEN  =     14973.24208224
  -Hartree energ DENC   =    -16962.89518079
  -exchange      EXHF   =         0.00000000
  -V(xc)+E(xc)   XCENC  =        43.09199827
  PAW double counting   =      6271.78918614    -6174.77663451
  entropy T*S    EENTRO =        -0.00000004
  eigenvalues    EBANDS =      -357.57072303
  atomic energy  EATOM  =      2112.50091676
  Solvation  Ediel_sol  =         0.00000000
  ---------------------------------------------------
  free energy    TOTEN  =       -64.33821101 eV

  energy without entropy =      -64.33821097  energy(sigma->0) =      -64.33821099


--------------------------------------------------------------------------------------------------------




--------------------------------------- Iteration      1(  11)  ---------------------------------------


    POTLOK:  cpu time    0.0194: real time    0.0211
    SETDIJ:  cpu time    0.0647: real time    0.0647
     EDDAV:  cpu time    0.7112: real time    0.7121
       DOS:  cpu time    0.0005: real time    0.0005
    CHARGE:  cpu time    0.0380: real time    0.0380
    MIXING:  cpu time    0.0008: real time    0.0008
    --------------------------------------------
      LOOP:  cpu time    0.8346: real time    0.8371

 eigenvalue-minimisations  :  1208
 total energy-change (2. order) : 0.2486733E-03  (-0.3884485E-04)
 number of electron      59.9999987 magnetization 
 augmentation part       -6.4471921 magnetization 

 Broyden mixing:
  rms(total) = 0.43515E-02    rms(broyden)= 0.43515E-02
  rms(prec ) = 0.49170E-02
  weight for this iteration     100.00

 eigenvalues of (default mixing * dielectric matrix)
  average eigenvalue GAMMA=   1.6375
  2.5531  2.5531  1.5043  0.9609  1.1270  1.1270

 Free energy of the ion-electron system (eV)
  ---------------------------------------------------
  alpha Z        PSCENC =        30.28014394
  Ewald energy   TEWEN  =     14973.24208224
  -Hartree energ DENC   =    -16964.78105732
  -exchange      EXHF   =         0.00000000
  -V(xc)+E(xc)   XCENC  =        43.12430195
  PAW double counting   =      6294.07694458    -6197.05916973
  entropy T*S    EENTRO =        -0.00000005
  eigenvalues    EBANDS =      -355.72212470
  atomic energy  EATOM  =      2112.50091676
  Solvation  Ediel_sol  =         0.00000000
  ---------------------------------------------------
  free energy    TOTEN  =       -64.33796234 eV

  energy without entropy =      -64.33796229  energy(sigma->0) =      -64.33796231


--------------------------------------------------------------------------------------------------------




--------------------------------------- Iteration      1(  12)  ---------------------------------------


    POTLOK:  cpu time    0.0203: real time    0.0216
    SETDIJ:  cpu time    0.0646: real time    0.0646
     EDDAV:  cpu time    0.7219: real time    0.7230
       DOS:  cpu time    0.0005: real time    0.0005
    CHARGE:  cpu time    0.0375: real time    0.0375
    MIXING:  cpu time    0.0008: real time    0.0008
    --------------------------------------------
      LOOP:  cpu time    0.8455: real time    0.8480

 eigenvalue-minimisations  :  1208
 total energy-change (2. order) :-0.1005725E-03  (-0.6597403E-05)
 number of electron      59.9999987 magnetization 
 augmentation part       -6.4471093 magnetization 

 Broyden mixing:
  rms(total) = 0.15432E-02    rms(broyden)= 0.15432E-02
  rms(prec ) = 0.23018E-02
  weight for this iteration     100.00

 eigenvalues of (default mixing * dielectric matrix)
  average eigenvalue GAMMA=   1.8007
  3.1011  2.4723  1.7157  1.7157  1.0717  1.2643  1.2643

 Free energy of the ion-electron system (eV)
  ---------------------------------------------------
  alpha Z        PSCENC =        30.28014394
  Ewald energy   TEWEN  =     14973.24208224
  -Hartree energ DENC   =    -16965.60254727
  -exchange      EXHF   =         0.00000000
  -V(xc)+E(xc)   XCENC  =        43.13008840
  PAW double counting   =      6299.78210672    -6202.76444152
  entropy T*S    EENTRO =        -0.00000005
  eigenvalues    EBANDS =      -354.90641212
  atomic energy  EATOM  =      2112.50091676
  Solvation  Ediel_sol  =         0.00000000
  ---------------------------------------------------
  free energy    TOTEN  =       -64.33806291 eV

  energy without entropy =      -64.33806286  energy(sigma->0) =      -64.33806288


--------------------------------------------------------------------------------------------------------




--------------------------------------- Iteration      1(  13)  ---------------------------------------


    POTLOK:  cpu time    0.0194: real time    0.0214
    SETDIJ:  cpu time    0.0643: real time    0.0643
     EDDAV:  cpu time    0.6689: real time    0.6697
       DOS:  cpu time    0.0005: real time    0.0005
    CHARGE:  cpu time    0.0372: real time    0.0372
    MIXING:  cpu time    0.0009: real time    0.0009
    --------------------------------------------
      LOOP:  cpu time    0.7911: real time    0.7940

 eigenvalue-minimisations  :  1072
 total energy-change (2. order) :-0.2285318E-03  (-0.7841010E-05)
 number of electron      59.9999987 magnetization 
 augmentation part       -6.4468534 magnetization 

 Broyden mixing:
  rms(total) = 0.35019E-02    rms(broyden)= 0.35019E-02
  rms(prec ) = 0.36155E-02
  weight for this iteration     100.00

 eigenvalues of (default mixing * dielectric matrix)
  average eigenvalue GAMMA=   1.8151
  3.6309  2.5004  2.3396  1.6761  1.1449  1.1449  1.0419  1.0419

 Free energy of the ion-electron system (eV)
  ---------------------------------------------------
  alpha Z        PSCENC =        30.28014394
  Ewald energy   TEWEN  =     14973.24208224
  -Hartree energ DENC   =    -16966.90662279
  -exchange      EXHF   =         0.00000000
  -V(xc)+E(xc)   XCENC  =        43.14035695
  PAW double counting   =      6306.25379930    -6209.23572834
  entropy T*S    EENTRO =        -0.00000006
  eigenvalues    EBANDS =      -353.61323945
  atomic energy  EATOM  =      2112.50091676
  Solvation  Ediel_sol  =         0.00000000
  ---------------------------------------------------
  free energy    TOTEN  =       -64.33829144 eV

  energy without entropy =      -64.33829138  energy(sigma->0) =      -64.33829141


--------------------------------------------------------------------------------------------------------




--------------------------------------- Iteration      1(  14)  ---------------------------------------


    POTLOK:  cpu time    0.0198: real time    0.0211
    SETDIJ:  cpu time    0.0644: real time    0.0644
     EDDAV:  cpu time    0.6144: real time    0.6151
       DOS:  cpu time    0.0005: real time    0.0005
    CHARGE:  cpu time    0.0388: real time    0.0388
    MIXING:  cpu time    0.0009: real time    0.0009
    --------------------------------------------
      LOOP:  cpu time    0.7387: real time    0.7408

 eigenvalue-minimisations  :   984
 total energy-change (2. order) :-0.1315514E-03  (-0.2066383E-05)
 number of electron      59.9999987 magnetization 
 augmentation part       -6.4467730 magnetization 

 Broyden mixing:
  rms(total) = 0.31464E-02    rms(broyden)= 0.31464E-02
  rms(prec ) = 0.32078E-02
  weight for this iteration     100.00

 eigenvalues of (default mixing * dielectric matrix)
  average eigenvalue GAMMA=   1.6248
  3.5458  2.4188  2.4188  1.6878  1.1581  1.1581  1.0396  1.0396  0.1567

 Free energy of the ion-electron system (eV)
  ---------------------------------------------------
  alpha Z        PSCENC =        30.28014394
  Ewald energy   TEWEN  =     14973.24208224
  -Hartree energ DENC   =    -16967.37090736
  -exchange      EXHF   =         0.00000000
  -V(xc)+E(xc)   XCENC  =        43.14180668
  PAW double counting   =      6303.85409624    -6206.83625267
  entropy T*S    EENTRO =        -0.00000006
  eigenvalues    EBANDS =      -353.15030876
  atomic energy  EATOM  =      2112.50091676
  Solvation  Ediel_sol  =         0.00000000
  ---------------------------------------------------
  free energy    TOTEN  =       -64.33842299 eV

  energy without entropy =      -64.33842293  energy(sigma->0) =      -64.33842296


--------------------------------------------------------------------------------------------------------




--------------------------------------- Iteration      1(  15)  ---------------------------------------


    POTLOK:  cpu time    0.0196: real time    0.0214
    SETDIJ:  cpu time    0.0643: real time    0.0643
     EDDAV:  cpu time    0.5208: real time    0.5214
       DOS:  cpu time    0.0005: real time    0.0005
    CHARGE:  cpu time    0.0425: real time    0.0425
    MIXING:  cpu time    0.0010: real time    0.0010
    --------------------------------------------
      LOOP:  cpu time    0.6486: real time    0.6510

 eigenvalue-minimisations  :   752
 total energy-change (2. order) :-0.2194218E-04  (-0.1868482E-06)
 number of electron      59.9999987 magnetization 
 augmentation part       -6.4467825 magnetization 

 Broyden mixing:
  rms(total) = 0.25328E-02    rms(broyden)= 0.25328E-02
  rms(prec ) = 0.26034E-02
  weight for this iteration     100.00

 eigenvalues of (default mixing * dielectric matrix)
  average eigenvalue GAMMA=   1.9531
  4.8016  2.5106  2.3416  2.3416  1.7208  1.3623  1.3623  1.1187  0.9858  0.9858

 Free energy of the ion-electron system (eV)
  ---------------------------------------------------
  alpha Z        PSCENC =        30.28014394
  Ewald energy   TEWEN  =     14973.24208224
  -Hartree energ DENC   =    -16967.38582329
  -exchange      EXHF   =         0.00000000
  -V(xc)+E(xc)   XCENC  =        43.14149516
  PAW double counting   =      6302.85367153    -6205.83586997
  entropy T*S    EENTRO =        -0.00000007
  eigenvalues    EBANDS =      -353.13506124
  atomic energy  EATOM  =      2112.50091676
  Solvation  Ediel_sol  =         0.00000000
  ---------------------------------------------------
  free energy    TOTEN  =       -64.33844494 eV

  energy without entropy =      -64.33844487  energy(sigma->0) =      -64.33844490


--------------------------------------------------------------------------------------------------------




--------------------------------------- Iteration      1(  16)  ---------------------------------------


    POTLOK:  cpu time    0.0201: real time    0.0220
    SETDIJ:  cpu time    0.0642: real time    0.0642
     EDDAV:  cpu time    0.6002: real time    0.6012
       DOS:  cpu time    0.0005: real time    0.0005
    CHARGE:  cpu time    0.0375: real time    0.0375
    MIXING:  cpu time    0.0011: real time    0.0011
    --------------------------------------------
      LOOP:  cpu time    0.7236: real time    0.7264

 eigenvalue-minimisations  :   960
 total energy-change (2. order) :-0.2351385E-03  (-0.2229778E-05)
 number of electron      59.9999987 magnetization 
 augmentation part       -6.4467225 magnetization 

 Broyden mixing:
  rms(total) = 0.21005E-02    rms(broyden)= 0.21005E-02
  rms(prec ) = 0.21106E-02
  weight for this iteration     100.00

 eigenvalues of (default mixing * dielectric matrix)
  average eigenvalue GAMMA=   1.9946
  6.6164  2.7879  2.3454  1.9290  1.9290  1.3417  1.3417  1.0920  0.8377  0.8600
  0.8600

 Free energy of the ion-electron system (eV)
  ---------------------------------------------------
  alpha Z        PSCENC =        30.28014394
  Ewald energy   TEWEN  =     14973.24208224
  -Hartree energ DENC   =    -16968.03928782
  -exchange      EXHF   =         0.00000000
  -V(xc)+E(xc)   XCENC  =        43.14143421
  PAW double counting   =      6294.72733671    -6197.70905693
  entropy T*S    EENTRO =        -0.00000007
  eigenvalues    EBANDS =      -352.48224911
  atomic energy  EATOM  =      2112.50091676
  Solvation  Ediel_sol  =         0.00000000
  ---------------------------------------------------
  free energy    TOTEN  =       -64.33868007 eV

  energy without entropy =      -64.33868001  energy(sigma->0) =      -64.33868004


--------------------------------------------------------------------------------------------------------




--------------------------------------- Iteration      1(  17)  ---------------------------------------


    POTLOK:  cpu time    0.0196: real time    0.0215
    SETDIJ:  cpu time    0.0642: real time    0.0642
     EDDAV:  cpu time    0.5487: real time    0.5495
       DOS:  cpu time    0.0005: real time    0.0005
    CHARGE:  cpu time    0.0372: real time    0.0372
    MIXING:  cpu time    0.0010: real time    0.0010
    --------------------------------------------
      LOOP:  cpu time    0.6712: real time    0.6740

 eigenvalue-minimisations  :   832
 total energy-change (2. order) :-0.2156709E-04  (-0.2937007E-06)
 number of electron      59.9999987 magnetization 
 augmentation part       -6.4467252 magnetization 

 Broyden mixing:
  rms(total) = 0.16492E-02    rms(broyden)= 0.16492E-02
  rms(prec ) = 0.16556E-02
  weight for this iteration     100.00

 eigenvalues of (default mixing * dielectric matrix)
  average eigenvalue GAMMA=   1.8290
  6.6168  2.7883  2.3464  1.9293  1.9293  1.3418  1.3418  1.0915  0.8381  0.8604
  0.8604  0.0038

 Free energy of the ion-electron system (eV)
  ---------------------------------------------------
  alpha Z        PSCENC =        30.28014394
  Ewald energy   TEWEN  =     14973.24208224
  -Hartree energ DENC   =    -16968.15957255
  -exchange      EXHF   =         0.00000000
  -V(xc)+E(xc)   XCENC  =        43.14175388
  PAW double counting   =      6295.32865677    -6198.31036100
  entropy T*S    EENTRO =        -0.00000007
  eigenvalues    EBANDS =      -352.36232161
  atomic energy  EATOM  =      2112.50091676
  Solvation  Ediel_sol  =         0.00000000
  ---------------------------------------------------
  free energy    TOTEN  =       -64.33870164 eV

  energy without entropy =      -64.33870157  energy(sigma->0) =      -64.33870161


--------------------------------------------------------------------------------------------------------




--------------------------------------- Iteration      1(  18)  ---------------------------------------


    POTLOK:  cpu time    0.0198: real time    0.0214
    SETDIJ:  cpu time    0.0642: real time    0.0642
     EDDAV:  cpu time    0.5299: real time    0.5306
       DOS:  cpu time    0.0005: real time    0.0005
    --------------------------------------------
      LOOP:  cpu time    0.6966: real time    0.6990

 eigenvalue-minimisations  :   768
 total energy-change (2. order) :-0.3645710E-07  (-0.3479068E-07)
 number of electron      59.9999987 magnetization 
 augmentation part       -6.4467252 magnetization 

 Free energy of the ion-electron system (eV)
  ---------------------------------------------------
  alpha Z        PSCENC =        30.28014394
  Ewald energy   TEWEN  =     14973.24208224
  -Hartree energ DENC   =    -16968.15957399
  -exchange      EXHF   =         0.00000000
  -V(xc)+E(xc)   XCENC  =        43.14175395
  PAW double counting   =      6295.32909570    -6198.31079988
  entropy T*S    EENTRO =        -0.00000007
  eigenvalues    EBANDS =      -352.36232034
  atomic energy  EATOM  =      2112.50091676
  Solvation  Ediel_sol  =         0.00000000
  ---------------------------------------------------
  free energy    TOTEN  =       -64.33870168 eV

  energy without entropy =      -64.33870161  energy(sigma->0) =      -64.33870164


--------------------------------------------------------------------------------------------------------




 the core state eigenenergies are
   1-  1s  -2078.3877  2s   -168.4198  2p   -118.9053
   2-  1s  -2078.3877  2s   -168.4198  2p   -118.9053
   3-  1s  -2078.4471  2s   -168.4730  2p   -118.9591
   4-  1s  -2078.4471  2s   -168.4730  2p   -118.9591
   5-  1s  -2078.4767  2s   -168.5036  2p   -118.9896
   6-  1s  -2078.4767  2s   -168.5036  2p   -118.9896
   7-  1s  -2078.4767  2s   -168.5036  2p   -118.9896
   8-  1s  -2078.4767  2s   -168.5036  2p   -118.9896
   9-  1s  -2078.4471  2s   -168.4730  2p   -118.9591
  10-  1s  -2078.4471  2s   -168.4730  2p   -118.9591
  11-  1s  -2078.3877  2s   -168.4198  2p   -118.9053
  12-  1s  -2078.3877  2s   -168.4198  2p   -118.9053
 
 E-fermi :   0.9389     XC(G=0):  -5.1379     alpha+bet : -5.5572


 k-point     1 :       0.0000    0.0000    0.0000
  band No.  band energies     occupation 
      1     -14.8548      2.00000
      2     -14.7346      2.00000
      3     -14.6659      2.00000
      4     -12.3738      2.00000
      5     -12.1281      2.00000
      6     -11.9482      2.00000
      7      -8.6066      2.00000
      8      -8.5226      2.00000
      9      -8.4924      2.00000
     10      -5.9246      2.00000
     11      -5.5458      2.00000
     12      -5.1275      2.00000
     13      -4.5055      2.00000
     14      -4.5054      2.00000
     15      -4.1879      2.00000
     16      -4.1435      2.00000
     17      -3.9961      2.00000
     18      -3.9220      2.00000
     19      -3.3941      2.00000
     20      -3.2934      2.00000
     21      -3.2435      2.00000
     22      -1.8803      2.00000
     23      -1.7368      2.00000
     24      -1.6252      2.00000
     25      -1.5898      2.00000
     26      -1.5047      2.00000
     27      -1.1084      2.00000
     28      -0.2500      2.00000
     29       0.3537      2.00000
     30       0.9092      1.99997
     31       0.9687      0.00003
     32       1.4964      0.00000
     33       1.5223      0.00000
     34       1.6969      0.00000
     35       1.7045      0.00000
     36       1.8604      0.00000
     37       2.7297      0.00000
     38       2.9001      0.00000
     39       2.9711      0.00000
     40       3.6805      0.00000

 k-point     2 :       0.1667    0.0000    0.0000
  band No.  band energies     occupation 
      1     -14.5313      2.00000
      2     -14.4123      2.00000
      3     -14.3448      2.00000
      4     -12.0371      2.00000
      5     -11.7928      2.00000
      6     -11.6140      2.00000
      7      -8.8993      2.00000
      8      -8.8384      2.00000
      9      -8.8323      2.00000
     10      -5.6516      2.00000
     11      -5.2805      2.00000
     12      -4.9727      2.00000
     13      -4.8918      2.00000
     14      -4.8852      2.00000
     15      -4.8538      2.00000
     16      -4.4288      2.00000
     17      -4.3556      2.00000
     18      -4.3448      2.00000
     19      -4.2193      2.00000
     20      -3.8748      2.00000
     21      -3.7306      2.00000
     22      -2.6619      2.00000
     23      -2.5116      2.00000
     24      -2.3463      2.00000
     25      -1.7422      2.00000
     26      -1.4709      2.00000
     27      -0.9684      2.00000
     28      -0.2140      2.00000
     29       0.1863      2.00000
     30       0.4566      2.00000
     31       1.2520      0.00000
     32       1.6566      0.00000
     33       1.8810      0.00000
     34       2.3385      0.00000
     35       2.5505      0.00000
     36       2.5749      0.00000
     37       3.7495      0.00000
     38       3.8750      0.00000
     39       3.9796      0.00000
     40       4.2728      0.00000

 k-point     3 :       0.3333    0.0000    0.0000
  band No.  band energies     occupation 
      1     -13.5782      2.00000
      2     -13.4633      2.00000
      3     -13.4003      2.00000
      4     -11.0355      2.00000
      5     -10.7959      2.00000
      6     -10.6208      2.00000
      7     -10.2418      2.00000
      8     -10.1627      2.00000
      9     -10.1377      2.00000
     10      -7.2215      2.00000
     11      -7.0254      2.00000
     12      -6.8872      2.00000
     13      -4.9309      2.00000
     14      -4.9060      2.00000
     15      -4.8498      2.00000
     16      -4.8407      2.00000
     17      -4.6055      2.00000
     18      -4.3161      2.00000
     19      -3.4264      2.00000
     20      -3.1571      2.00000
     21      -3.0341      2.00000
     22      -2.6860      2.00000
     23      -2.3965      2.00000
     24      -2.1621      2.00000
     25      -1.7911      2.00000
     26      -1.5220      2.00000
     27      -1.1904      2.00000
     28      -0.8935      2.00000
     29      -0.7537      2.00000
     30      -0.6903      2.00000
     31       1.1107      0.00000
     32       1.1720      0.00000
     33       1.4338      0.00000
     34       2.0730      0.00000
     35       2.2847      0.00000
     36       2.6022      0.00000
     37       2.6455      0.00000
     38       2.6614      0.00000
     39       2.6688      0.00000
     40       2.9500      0.00000

 k-point     4 :       0.5000    0.0000    0.0000
  band No.  band energies     occupation 
      1     -12.0676      2.00000
      2     -12.0676      2.00000
      3     -11.9628      2.00000
      4     -11.9628      2.00000
      5     -11.9103      2.00000
      6     -11.9103      2.00000
      7      -9.4001      2.00000
      8      -9.4001      2.00000
      9      -9.1715      2.00000
     10      -9.1715      2.00000
     11      -9.0053      2.00000
     12      -9.0053      2.00000
     13      -4.4698      2.00000
     14      -4.4698      2.00000
     15      -4.3356      2.00000
     16      -4.3356      2.00000
     17      -4.2899      2.00000
     18      -4.2899      2.00000
     19      -2.4676      2.00000
     20      -2.4676      2.00000
     21      -2.3941      2.00000
     22      -2.3941      2.00000
     23      -2.3937      2.00000
     24      -2.3937      2.00000
     25      -2.0109      2.00000
     26      -2.0109      2.00000
     27      -1.7403      2.00000
     28      -1.7403      2.00000
     29      -1.4881      2.00000
     30      -1.4881      2.00000
     31       1.6187      0.00000
     32       1.6187      0.00000
     33       1.6313      0.00000
     34       1.6313      0.00000
     35       1.7132      0.00000
     36       1.7132      0.00000
     37       2.1547      0.00000
     38       2.1548      0.00000
     39       2.1911      0.00000
     40       2.1918      0.00000

 k-point     5 :       0.0000    0.0000    0.2500
  band No.  band energies     occupation 
      1     -14.5034      2.00000
      2     -14.3904      2.00000
      3     -14.3294      2.00000
      4     -12.5962      2.00000
      5     -12.4624      2.00000
      6     -12.4018      2.00000
      7      -9.0060      2.00000
      8      -8.8493      2.00000
      9      -8.7267      2.00000
     10      -6.9122      2.00000
     11      -6.6394      2.00000
     12      -6.4715      2.00000
     13      -4.5491      2.00000
     14      -4.0381      2.00000
     15      -3.3762      2.00000
     16      -3.1168      2.00000
     17      -3.0638      2.00000
     18      -3.0246      2.00000
     19      -2.9837      2.00000
     20      -2.7188      2.00000
     21      -2.7180      2.00000
     22      -1.8652      2.00000
     23      -1.7647      2.00000
     24      -1.7338      2.00000
     25      -1.7261      2.00000
     26      -1.0751      2.00000
     27      -0.4263      2.00000
     28      -0.2675      2.00000
     29      -0.2050      2.00000
     30      -0.0275      2.00000
     31       1.6791      0.00000
     32       2.0056      0.00000
     33       2.1137      0.00000
     34       2.2069      0.00000
     35       2.2568      0.00000
     36       2.2600      0.00000
     37       2.3678      0.00000
     38       2.7083      0.00000
     39       3.2521      0.00000
     40       3.3074      0.00000

 k-point     6 :       0.1667    0.0000    0.2500
  band No.  band energies     occupation 
      1     -14.1846      2.00000
      2     -14.0728      2.00000
      3     -14.0131      2.00000
      4     -12.2803      2.00000
      5     -12.1509      2.00000
      6     -12.0944      2.00000
      7      -9.0397      2.00000
      8      -8.8875      2.00000
      9      -8.7742      2.00000
     10      -6.7963      2.00000
     11      -6.5667      2.00000
     12      -6.4200      2.00000
     13      -4.9862      2.00000
     14      -4.8455      2.00000
     15      -4.7166      2.00000
     16      -4.5119      2.00000
     17      -4.0379      2.00000
     18      -3.7238      2.00000
     19      -3.3133      2.00000
     20      -3.1979      2.00000
     21      -2.9144      2.00000
     22      -2.3360      2.00000
     23      -2.1652      2.00000
     24      -2.1438      2.00000
     25      -1.4992      2.00000
     26      -0.9518      2.00000
     27      -0.8611      2.00000
     28      -0.7311      2.00000
     29      -0.4607      2.00000
     30      -0.4124      2.00000
     31       2.0275      0.00000
     32       2.3124      0.00000
     33       2.5877      0.00000
     34       2.8629      0.00000
     35       3.0134      0.00000
     36       3.0653      0.00000
     37       3.3732      0.00000
     38       3.4977      0.00000
     39       3.6078      0.00000
     40       4.3201      0.00000

 k-point     7 :       0.3333    0.0000    0.2500
  band No.  band energies     occupation 
      1     -13.2535      2.00000
      2     -13.1464      2.00000
      3     -13.0916      2.00000
      4     -11.4369      2.00000
      5     -11.3346      2.00000
      6     -11.3016      2.00000
      7      -9.7503      2.00000
      8      -9.5902      2.00000
      9      -9.4806      2.00000
     10      -7.5241      2.00000
     11      -7.4371      2.00000
     12      -7.4165      2.00000
     13      -5.8330      2.00000
     14      -5.6653      2.00000
     15      -5.5320      2.00000
     16      -4.7975      2.00000
     17      -4.7533      2.00000
     18      -4.6782      2.00000
     19      -3.3918      2.00000
     20      -3.3111      2.00000
     21      -3.1777      2.00000
     22      -2.5126      2.00000
     23      -2.3685      2.00000
     24      -2.3639      2.00000
     25      -2.2361      2.00000
     26      -1.8480      2.00000
     27      -1.3305      2.00000
     28      -0.9601      2.00000
     29      -0.6601      2.00000
     30      -0.6242      2.00000
     31       1.7033      0.00000
     32       1.8315      0.00000
     33       2.0264      0.00000
     34       2.5145      0.00000
     35       2.7049      0.00000
     36       2.9611      0.00000
     37       3.1522      0.00000
     38       3.3301      0.00000
     39       3.3719      0.00000
     40       3.8738      0.00000

 k-point     8 :       0.5000    0.0000    0.2500
  band No.  band energies     occupation 
      1     -11.8546      2.00000
      2     -11.8546      2.00000
      3     -11.7628      2.00000
      4     -11.7628      2.00000
      5     -11.7245      2.00000
      6     -11.7245      2.00000
      7      -9.4310      2.00000
      8      -9.4310      2.00000
      9      -9.2733      2.00000
     10      -9.2733      2.00000
     11      -9.1820      2.00000
     12      -9.1820      2.00000
     13      -5.0177      2.00000
     14      -5.0177      2.00000
     15      -4.8281      2.00000
     16      -4.8281      2.00000
     17      -4.6764      2.00000
     18      -4.6764      2.00000
     19      -3.6867      2.00000
     20      -3.6867      2.00000
     21      -3.4423      2.00000
     22      -3.4423      2.00000
     23      -3.3092      2.00000
     24      -3.3092      2.00000
     25      -1.5495      2.00000
     26      -1.5495      2.00000
     27      -1.2059      2.00000
     28      -1.2059      2.00000
     29      -0.9102      2.00000
     30      -0.9102      2.00000
     31       2.0051      0.00000
     32       2.0051      0.00000
     33       2.3080      0.00000
     34       2.3080      0.00000
     35       2.4548      0.00000
     36       2.4548      0.00000
     37       3.1797      0.00000
     38       3.1797      0.00000
     39       3.4036      0.00000
     40       3.4036      0.00000

 k-point     9 :       0.0000    0.0000    0.5000
  band No.  band energies     occupation 
      1     -13.5470      2.00000
      2     -13.5470      2.00000
      3     -13.4773      2.00000
      4     -13.4773      2.00000
      5     -13.4310      2.00000
      6     -13.4310      2.00000
      7      -8.5714      2.00000
      8      -8.5714      2.00000
      9      -8.2548      2.00000
     10      -8.2548      2.00000
     11      -7.9812      2.00000
     12      -7.9812      2.00000
     13      -3.5914      2.00000
     14      -3.5914      2.00000
     15      -2.8286      2.00000
     16      -2.8286      2.00000
     17      -2.4228      2.00000
     18      -2.4228      2.00000
     19      -2.3791      2.00000
     20      -2.3791      2.00000
     21      -2.3338      2.00000
     22      -2.3338      2.00000
     23      -2.0235      2.00000
     24      -2.0235      2.00000
     25      -0.7280      2.00000
     26      -0.7280      2.00000
     27      -0.5202      2.00000
     28      -0.5202      2.00000
     29      -0.4476      2.00000
     30      -0.4476      2.00000
     31       2.1898      0.00000
     32       2.1898      0.00000
     33       2.2332      0.00000
     34       2.2332      0.00000
     35       2.2857      0.00000
     36       2.2857      0.00000
     37       3.4175      0.00000
     38       3.4179      0.00000
     39       3.5645      0.00000
     40       3.5953      0.00000

 k-point    10 :       0.1667    0.0000    0.5000
  band No.  band energies     occupation 
      1     -13.2409      2.00000
      2     -13.2409      2.00000
      3     -13.1715      2.00000
      4     -13.1715      2.00000
      5     -13.1261      2.00000
      6     -13.1261      2.00000
      7      -8.4266      2.00000
      8      -8.4266      2.00000
      9      -8.1363      2.00000
     10      -8.1363      2.00000
     11      -7.8957      2.00000
     12      -7.8957      2.00000
     13      -4.3702      2.00000
     14      -4.3702      2.00000
     15      -4.2641      2.00000
     16      -4.2641      2.00000
     17      -4.1660      2.00000
     18      -4.1660      2.00000
     19      -3.3513      2.00000
     20      -3.3513      2.00000
     21      -2.6381      2.00000
     22      -2.6381      2.00000
     23      -1.9682      2.00000
     24      -1.9682      2.00000
     25      -0.8121      2.00000
     26      -0.8121      2.00000
     27      -0.6452      2.00000
     28      -0.6452      2.00000
     29      -0.4918      2.00000
     30      -0.4918      2.00000
     31       2.8448      0.00000
     32       2.8448      0.00000
     33       2.9830      0.00000
     34       2.9830      0.00000
     35       3.0963      0.00000
     36       3.0963      0.00000
     37       3.5134      0.00000
     38       3.5134      0.00000
     39       3.9742      0.00000
     40       3.9742      0.00000

 k-point    11 :       0.3333    0.0000    0.5000
  band No.  band energies     occupation 
      1     -12.3830      2.00000
      2     -12.3830      2.00000
      3     -12.3157      2.00000
      4     -12.3157      2.00000
      5     -12.2756      2.00000
      6     -12.2756      2.00000
      7      -8.6637      2.00000
      8      -8.6637      2.00000
      9      -8.5142      2.00000
     10      -8.5142      2.00000
     11      -8.4283      2.00000
     12      -8.4283      2.00000
     13      -5.7961      2.00000
     14      -5.7961      2.00000
     15      -5.5449      2.00000
     16      -5.5449      2.00000
     17      -5.3202      2.00000
     18      -5.3202      2.00000
     19      -3.4355      2.00000
     20      -3.4355      2.00000
     21      -3.0690      2.00000
     22      -3.0690      2.00000
     23      -2.7859      2.00000
     24      -2.7859      2.00000
     25      -1.8733      2.00000
     26      -1.8733      2.00000
     27      -1.3277      2.00000
     28      -1.3277      2.00000
     29      -0.8287      2.00000
     30      -0.8287      2.00000
     31       2.6918      0.00000
     32       2.6918      0.00000
     33       3.2784      0.00000
     34       3.2784      0.00000
     35       3.9563      0.00000
     36       3.9572      0.00000
     37       3.9844      0.00000
     38       3.9861      0.00000
     39       4.0858      0.00000
     40       4.1001      0.00000

 k-point    12 :       0.5000    0.0000    0.5000
  band No.  band energies     occupation 
      1     -11.5664      2.00000
      2     -11.5664      2.00000
      3     -11.5108      2.00000
      4     -11.5108      2.00000
      5     -11.5106      2.00000
      6     -11.5106      2.00000
      7      -9.5297      2.00000
      8      -9.5297      2.00000
      9      -9.4665      2.00000
     10      -9.4665      2.00000
     11      -9.4652      2.00000
     12      -9.4652      2.00000
     13      -4.9611      2.00000
     14      -4.9611      2.00000
     15      -4.9464      2.00000
     16      -4.9464      2.00000
     17      -4.6715      2.00000
     18      -4.6715      2.00000
     19      -4.6179      2.00000
     20      -4.6179      2.00000
     21      -4.3756      2.00000
     22      -4.3756      2.00000
     23      -4.3749      2.00000
     24      -4.3749      2.00000
     25      -1.2347      2.00000
     26      -1.2347      2.00000
     27      -1.1807      2.00000
     28      -1.1807      2.00000
     29      -1.0522      2.00000
     30      -1.0522      2.00000
     31       2.6255      0.00000
     32       2.6255      0.00000
     33       2.7586      0.00000
     34       2.7586      0.00000
     35       2.8971      0.00000
     36       2.8971      0.00000
     37       4.8156      0.00000
     38       4.8246      0.00000
     39       4.8659      0.00000
     40       4.8677      0.00000


--------------------------------------------------------------------------------------------------------


 soft charge-density along one line, spin component           1
         0         1         2         3         4         5         6         7         8         9
 total charge-density along one line
 
 pseudopotential strength for first ion, spin component:           1
 29.685  37.031   0.035  -0.033  -0.000   0.055  -0.052  -0.000
 37.031  46.199   0.044  -0.041  -0.000   0.068  -0.064  -0.000
  0.035   0.044   6.554   0.006  -0.000  10.135   0.009  -0.000
 -0.033  -0.041   0.006   6.558  -0.000   0.009  10.141  -0.000
 -0.000  -0.000  -0.000  -0.000   6.562  -0.000  -0.000  10.148
  0.055   0.068  10.135   0.009  -0.000  15.692   0.014  -0.000
 -0.052  -0.064   0.009  10.141  -0.000   0.014  15.701  -0.000
 -0.000  -0.000  -0.000  -0.000  10.148  -0.000  -0.000  15.711
 total augmentation occupancy for first ion, spin component:           1
  8.286  -4.726   1.857  -1.947   0.000  -0.593   0.651   0.000
 -4.726   3.436  -1.596   1.652   0.000   0.439  -0.478  -0.000
  1.857  -1.596   3.140   0.195   0.000  -0.829  -0.162   0.000
 -1.947   1.652   0.195   3.281   0.000  -0.161  -0.928   0.000
 -0.000  -0.000   0.000   0.000   3.410   0.000  -0.000  -1.031
 -0.593   0.439  -0.829  -0.161   0.000   0.261   0.070   0.000
  0.651  -0.478  -0.162  -0.928  -0.000   0.070   0.300  -0.000
  0.000  -0.000   0.000   0.000  -1.031   0.000   0.000   0.341


------------------------ aborting loop because EDIFF is reached ----------------------------------------


 


 total charge     
 
# of ion       s       p       d       tot
------------------------------------------
    1        1.082   1.376   0.000   2.458
    2        1.082   1.376   0.000   2.458
    3        1.084   1.372   0.000   2.456
    4        1.084   1.372   0.000   2.456
    5        1.084   1.372   0.000   2.456
    6        1.084   1.372   0.000   2.456
    7        1.084   1.372   0.000   2.456
    8        1.084   1.372   0.000   2.456
    9        1.084   1.372   0.000   2.456
   10        1.084   1.372   0.000   2.456
   11        1.082   1.376   0.000   2.458
   12        1.082   1.376   0.000   2.458
--------------------------------------------------
tot         12.998  16.481   0.000  29.479
 
    CHARGE:  cpu time    0.0377: real time    0.0377
    FORLOC:  cpu time    0.0015: real time    0.0015
    FORNL :  cpu time    0.1452: real time    0.1452
    STRESS:  cpu time    0.2256: real time    0.2256
    FORCOR:  cpu time    0.0203: real time    0.0204
    FORHAR:  cpu time    0.0057: real time    0.0057
    MIXING:  cpu time    0.0010: real time    0.0010
    OFIELD:  cpu time    0.0000: real time    0.0000

  DFT-D2 method for vdW energy calculation
  -------------------------------------------------------------------

  Parameters of vdW forcefield:
         C6(Jnm^6/mol)     R0(A)
   -----------------------------
   P        7.840          1.705

  IVDW =  10
  VDW_RADIUS =    50.000 A
  VDW_S6 =     0.750
  VDW_SR =     1.000
  VDW_D =    20.000
  LVDW_EWALD = F

  Number of pair interactions contributing to vdW energy:   88382
  Edisp (eV):   -2.17394
    FORVDW:  cpu time    0.0502: real time    0.0511

  FORCE on cell =-STRESS in cart. coord.  units (eV):
  Direction    XX          YY          ZZ          XY          YZ          ZX
  --------------------------------------------------------------------------------------
  Alpha Z    30.28014    30.28014    30.28014
  Ewald   16591.01473-18044.25022 16426.47569    -0.00000     0.00000     0.00000
  Hartree 16898.21387-16770.95662 16841.03079    -0.00000    -0.00000    -0.00000
  E(xc)    -201.45936  -202.71714  -201.64914    -0.00000     0.00000     0.00000
  Local  -34441.00941 33820.36821-34239.68463    -0.00000     0.00000     0.00000
  n-local   679.74372   678.09650   674.57428     0.00000    -0.00000     1.46323
  augment  -126.46303  -130.48987  -128.84114    -0.00000    -0.00000    -0.00000
  Kinetic   570.18197   620.10613   600.02493     0.00000    -0.00000     6.08097
  Fock        0.00000     0.00000     0.00000     0.00000     0.00000     0.00000
  vdW        -0.23282    -1.41063    -0.99576    -0.00000    -0.00000     0.00000
  -------------------------------------------------------------------------------------
  Total       0.26983    -0.97350     1.21515     0.00000     0.00000     0.00000
  in kB       0.90672    -3.27126     4.08328     0.00000     0.00000     0.00000
  external pressure =        0.57 kB  Pullay stress =        0.00 kB


 VOLUME and BASIS-vectors are now :
 -----------------------------------------------------------------------------
  energy-cutoff  :      500.00
  volume of cell :      476.80
      direct lattice vectors                 reciprocal lattice vectors
     3.342886000  0.000000000  0.000000000     0.299142717  0.000000000  0.000000000
     0.000000000 32.602409000  0.000000000     0.000000000  0.030672580  0.000000000
     0.000000000  0.000000000  4.374831000     0.000000000  0.000000000  0.228580258

  length of vectors
     3.342886000 32.602409000  4.374831000     0.299142717  0.030672580  0.228580258


 FORCES acting on ions
    electron-ion (+dipol)            ewald-force                    non-local-force                 convergence-correction
 -----------------------------------------------------------------------------------------------
   0.312E-15 0.823E+03 -.291E+02   0.114E-14 -.828E+03 0.342E+02   -.278E-16 0.582E+01 -.517E+01   0.387E-14 -.147E-02 -.440E-03
   -.146E-13 0.823E+03 0.291E+02   -.458E-14 -.828E+03 -.342E+02   0.000E+00 0.582E+01 0.517E+01   0.574E-15 -.147E-02 0.440E-03
   -.303E-14 0.459E+03 0.260E+02   0.181E-14 -.453E+03 -.313E+02   -.278E-16 -.553E+01 0.522E+01   -.232E-14 -.283E-02 -.313E-03
   -.160E-13 0.459E+03 -.260E+02   -.613E-14 -.453E+03 0.313E+02   -.278E-16 -.553E+01 -.522E+01   0.206E-14 -.283E-02 0.313E-03
   -.137E-13 0.183E+03 -.262E+02   0.754E-15 -.189E+03 0.314E+02   -.278E-16 0.546E+01 -.521E+01   0.453E-14 0.343E-02 -.971E-03
   0.122E-14 0.183E+03 0.262E+02   -.638E-14 -.189E+03 -.314E+02   -.278E-16 0.546E+01 0.521E+01   -.966E-15 0.343E-02 0.971E-03
   -.144E-13 -.183E+03 0.262E+02   0.197E-14 0.189E+03 -.314E+02   0.278E-16 -.546E+01 0.521E+01   0.106E-14 -.343E-02 0.971E-03
   0.625E-15 -.183E+03 -.262E+02   -.498E-14 0.189E+03 0.314E+02   0.278E-16 -.546E+01 -.521E+01   -.116E-14 -.343E-02 -.971E-03
   -.171E-14 -.459E+03 -.260E+02   0.911E-15 0.453E+03 0.313E+02   0.278E-16 0.553E+01 -.522E+01   -.607E-15 0.283E-02 0.313E-03
   -.160E-13 -.459E+03 0.260E+02   -.523E-14 0.453E+03 -.313E+02   0.278E-16 0.553E+01 0.522E+01   -.101E-14 0.283E-02 -.313E-03
   -.174E-14 -.823E+03 0.291E+02   0.158E-14 0.828E+03 -.342E+02   0.278E-16 -.582E+01 0.517E+01   -.780E-16 0.147E-02 0.440E-03
   -.145E-13 -.823E+03 -.291E+02   -.679E-14 0.828E+03 0.342E+02   0.000E+00 -.582E+01 -.517E+01   -.309E-14 0.147E-02 -.440E-03
 -----------------------------------------------------------------------------------------------
   -.935E-13 0.323E-11 0.428E-10   -.259E-13 0.000E+00 -.711E-14   0.000E+00 0.000E+00 0.000E+00   0.286E-14 -.392E-11 0.320E-14
 
 
 POSITION                                       TOTAL-FORCE (eV/Angst)
 -----------------------------------------------------------------------------------
      0.00000     10.00001      4.02014         0.000000      0.081054     -0.037589
      1.67144     10.00001      2.54211         0.000000      0.081054      0.037589
      0.00000     12.14332      0.35469         0.000000     -0.076958     -0.022316
      1.67144     12.14332      1.83272         0.000000     -0.076958      0.022316
      1.67144     15.22953      4.02014         0.000000      0.036688      0.003462
      0.00000     15.22953      2.54211         0.000000      0.036688     -0.003462
      1.67144     17.37288      0.35469         0.000000     -0.036688     -0.003462
      0.00000     17.37288      1.83272         0.000000     -0.036688      0.003462
      0.00000     20.45909      4.02014         0.000000      0.076958      0.022316
      1.67144     20.45909      2.54211         0.000000      0.076958     -0.022316
      0.00000     22.60240      0.35469         0.000000     -0.081054      0.037589
      1.67144     22.60240      1.83272        -0.000000     -0.081054     -0.037589
 -----------------------------------------------------------------------------------
    total drift:                               -0.000000     -0.000000      0.000000


--------------------------------------------------------------------------------------------------------



  FREE ENERGIE OF THE ION-ELECTRON SYSTEM (eV)
  ---------------------------------------------------
  free  energy   TOTEN  =       -66.51264120 eV

  energy  without entropy=      -66.51264113  energy(sigma->0) =      -66.51264117
 


--------------------------------------------------------------------------------------------------------


    POTLOK:  cpu time    0.1374: real time    0.1374


--------------------------------------------------------------------------------------------------------


 writing wavefunctions
     LOOP+:  cpu time   16.1332: real time   16.2208
    4ORBIT:  cpu time    0.0000: real time    0.0000
 


 total charge     
 
# of ion       s       p       d       tot
------------------------------------------
    1        1.082   1.376   0.000   2.458
    2        1.082   1.376   0.000   2.458
    3        1.084   1.372   0.000   2.456
    4        1.084   1.372   0.000   2.456
    5        1.084   1.372   0.000   2.456
    6        1.084   1.372   0.000   2.456
    7        1.084   1.372   0.000   2.456
    8        1.084   1.372   0.000   2.456
    9        1.084   1.372   0.000   2.456
   10        1.084   1.372   0.000   2.456
   11        1.082   1.376   0.000   2.458
   12        1.082   1.376   0.000   2.458
--------------------------------------------------
tot         12.998  16.481   0.000  29.479
 

 total amount of memory used by VASP MPI-rank0    38138. kBytes
=======================================================================

   base      :      30000. kBytes
   nonl-proj :       1466. kBytes
   fftplans  :       1470. kBytes
   grid      :       2232. kBytes
   one-center:          6. kBytes
   wavefun   :       2964. kBytes
 
  
  
 General timing and accounting informations for this job:
 ========================================================
  
                  Total CPU time used (sec):       22.610
                            User time (sec):       19.825
                          System time (sec):        2.784
                         Elapsed time (sec):       22.914
  
                   Maximum memory used (kb):      110444.
                   Average memory used (kb):           0.
  
                          Minor page faults:        38198
                          Major page faults:            0
                 Voluntary context switches:         2298
