 vasp.5.4.4.18Apr17-6-g9f103f2a35 (build Jun 20 2017 18:00:50) complex          
  
 executed on             LinuxIFC date 2018.03.16  15:57:25
 running on   32 total cores
 distrk:  each k-point on   32 cores,    1 groups
 distr:  one band on NCORES_PER_BAND=   8 cores,    4 groups


--------------------------------------------------------------------------------------------------------


 INCAR:
 POTCAR:    PAW_PBE P 06Sep2000                   
 POTCAR:    PAW_PBE P 06Sep2000                   
   VRHFIN =P : s2p3                                                             
   LEXCH  = PE                                                                  
   EATOM  =   176.0430 eV,   12.9388 Ry                                         
                                                                                
   TITEL  = PAW_PBE P 06Sep2000                                                 
   LULTRA =        F    use ultrasoft PP ?                                      
   IUNSCR =        1    unscreen: 0-lin 1-nonlin 2-no                           
   RPACOR =    1.500    partial core radius                                     
   POMASS =   30.974; ZVAL   =    5.000    mass and valenz                      
   RCORE  =    1.900    outmost cutoff radius                                   
   RWIGS  =    2.330; RWIGS  =    1.233    wigner-seitz radius (au A)           
   ENMAX  =  255.040; ENMIN  =  191.280 eV                                      
   ICORE  =        2    local potential                                         
   LCOR   =        T    correct aug charges                                     
   LPAW   =        T    paw PP                                                  
   EAUG   =  342.924                                                            
   DEXC   =    0.000                                                            
   RMAX   =    1.935    core radius for proj-oper                               
   RAUG   =    1.300    factor for augmentation sphere                          
   RDEP   =    1.931    radius for radial grids                                 
   RDEPT  =    1.794    core radius for aug-charge                              
                                                                                
   Atomic configuration                                                         
    6 entries                                                                   
     n  l   j            E        occ.                                          
     1  0  0.50     -2084.0982   2.0000                                         
     2  0  0.50      -173.9859   2.0000                                         
     2  1  1.50      -124.4865   6.0000                                         
     3  0  0.50       -13.9692   2.0000                                         
     3  1  0.50        -5.5067   3.0000                                         
     3  2  1.50        -5.4423   0.0000                                         
   Description                                                                  
     l       E           TYP  RCUT    TYP  RCUT                                 
     0    -13.9691527     23  1.900                                             
     0    -11.7794650     23  1.900                                             
     1     -5.5066937     23  1.900                                             
     1     -0.2556953     23  1.900                                             
     2     -5.4423304     23  1.900                                             
  local pseudopotential read in
  partial core-charges read in
  partial kinetic energy density read in
  atomic valenz-charges read in
  non local Contribution for L=           0  read in
    real space projection operators read in
  non local Contribution for L=           0  read in
    real space projection operators read in
  non local Contribution for L=           1  read in
    real space projection operators read in
  non local Contribution for L=           1  read in
    real space projection operators read in
    PAW grid and wavefunctions read in
 
   number of l-projection  operators is LMAX  =           4
   number of lm-projection operators is LMMAX =           8
 
  PAW_PBE P 06Sep2000                   :
 energy of atom  1       EATOM= -176.0430
 kinetic energy error for atom=    0.0023 (will be added to EATOM!!)
 
 
 POSCAR: P12                                     
  positions in direct lattice
  No initial velocities read in
 exchange correlation table for  LEXCH =        8
   RHO(1)=    0.500       N(1)  =     2000
   RHO(2)=  100.500       N(2)  =     4000
 


--------------------------------------------------------------------------------------------------------


 ion  position               nearest neighbor table
   1  0.000  0.307  0.919-   2 2.23   2 2.23   3 2.26
   2  0.500  0.307  0.581-   1 2.23   1 2.23   4 2.26
   3  0.000  0.372  0.081-   4 2.23   4 2.23   1 2.26
   4  0.500  0.372  0.419-   3 2.23   3 2.23   2 2.26
   5  0.500  0.467  0.919-   6 2.23   6 2.23   7 2.26
   6  0.000  0.467  0.581-   5 2.23   5 2.23   8 2.26
   7  0.500  0.533  0.081-   8 2.23   8 2.23   5 2.26
   8  0.000  0.533  0.419-   7 2.23   7 2.23   6 2.26
   9  0.000  0.628  0.919-  10 2.23  10 2.23  11 2.26
  10  0.500  0.628  0.581-   9 2.23   9 2.23  12 2.26
  11  0.000  0.693  0.081-  12 2.23  12 2.23   9 2.26
  12  0.500  0.693  0.419-  11 2.23  11 2.23  10 2.26
 
  LATTYP: Found a simple orthorhombic cell.
 ALAT       =     3.3428860000
 B/A-ratio  =     1.3086988309
 C/A-ratio  =     9.7527732026
  
  Lattice vectors:
  
 A1 = (  -3.3428860000,   0.0000000000,   0.0000000000)
 A2 = (   0.0000000000,   0.0000000000,  -4.3748310000)
 A3 = (   0.0000000000, -32.6024090000,   0.0000000000)


Analysis of symmetry for initial positions (statically):
=====================================================================
 Subroutine PRICEL returns:
 Original cell was already a primitive cell.
 

 Routine SETGRP: Setting up the symmetry group for a 
 simple orthorhombic supercell.


 Subroutine GETGRP returns: Found  8 space group operations
 (whereof  4 operations were pure point group operations)
 out of a pool of  8 trial point group operations.


The static configuration has the point symmetry C_2h.
 The point group associated with its full space group is D_2h.


Analysis of symmetry for dynamics (positions and initial velocities):
=====================================================================
 Subroutine PRICEL returns:
 Original cell was already a primitive cell.
 

 Routine SETGRP: Setting up the symmetry group for a 
 simple orthorhombic supercell.


 Subroutine GETGRP returns: Found  8 space group operations
 (whereof  4 operations were pure point group operations)
 out of a pool of  8 trial point group operations.


The dynamic configuration has the point symmetry C_2h.
 The point group associated with its full space group is D_2h.


 Subroutine INISYM returns: Found  8 space group operations
 (whereof  4 operations are pure point group operations),
 and found     1 'primitive' translations

 
 
 KPOINTS: Automatic mesh                          

Automatic generation of k-mesh.
Space group operators:
 irot       det(A)        alpha          n_x          n_y          n_z        tau_x        tau_y        tau_z
    1     1.000000     0.000001     1.000000     0.000000     0.000000     0.000000     0.000000     0.000000
    2    -1.000000     0.000001     1.000000     0.000000     0.000000     0.000000     0.000000     0.000000
    3     1.000000   179.999999     1.000000     0.000000     0.000000     0.000000     0.000000     0.000000
    4    -1.000000   179.999999     1.000000     0.000000     0.000000     0.000000     0.000000     0.000000
    5     1.000000   179.999999     0.000000     1.000000     0.000000    -0.500000     0.000000    -0.500000
    6    -1.000000   179.999999     0.000000     1.000000     0.000000    -0.500000     0.000000    -0.500000
    7     1.000000   179.999999     0.000000     0.000000     1.000000    -0.500000     0.000000    -0.500000
    8    -1.000000   179.999999     0.000000     0.000000     1.000000    -0.500000     0.000000    -0.500000
 
 Subroutine IBZKPT returns following result:
 ===========================================
 
 Found     16 irreducible k-points:
 
 Following reciprocal coordinates:
            Coordinates               Weight
  0.000000  0.000000  0.000000      1.000000
  0.142857  0.000000  0.000000      2.000000
  0.285714  0.000000  0.000000      2.000000
  0.428571  0.000000  0.000000      2.000000
  0.000000  0.000000  0.166667      2.000000
  0.142857  0.000000  0.166667      4.000000
  0.285714  0.000000  0.166667      4.000000
  0.428571  0.000000  0.166667      4.000000
  0.000000  0.000000  0.333333      2.000000
  0.142857  0.000000  0.333333      4.000000
  0.285714  0.000000  0.333333      4.000000
  0.428571  0.000000  0.333333      4.000000
  0.000000  0.000000  0.500000      1.000000
  0.142857  0.000000  0.500000      2.000000
  0.285714  0.000000  0.500000      2.000000
  0.428571  0.000000  0.500000      2.000000
 
 Following cartesian coordinates:
            Coordinates               Weight
  0.000000  0.000000  0.000000      1.000000
  0.042735  0.000000  0.000000      2.000000
  0.085469  0.000000  0.000000      2.000000
  0.128204  0.000000  0.000000      2.000000
  0.000000  0.000000  0.038097      2.000000
  0.042735  0.000000  0.038097      4.000000
  0.085469  0.000000  0.038097      4.000000
  0.128204  0.000000  0.038097      4.000000
  0.000000  0.000000  0.076193      2.000000
  0.042735  0.000000  0.076193      4.000000
  0.085469  0.000000  0.076193      4.000000
  0.128204  0.000000  0.076193      4.000000
  0.000000  0.000000  0.114290      1.000000
  0.042735  0.000000  0.114290      2.000000
  0.085469  0.000000  0.114290      2.000000
  0.128204  0.000000  0.114290      2.000000
 


--------------------------------------------------------------------------------------------------------




 Dimension of arrays:
   k-points           NKPTS =     16   k-points in BZ     NKDIM =     16   number of bands    NBANDS=     40
   number of dos      NEDOS =   2000   number of ions     NIONS =     12
   non local maximal  LDIM  =      4   non local SUM 2l+1 LMDIM =      8
   total plane-waves  NPLWV =  61440
   max r-space proj   IRMAX =      1   max aug-charges    IRDMAX=   4120
   dimension x,y,z NGX =    16 NGY =  160 NGZ =   24
   dimension x,y,z NGXF=    32 NGYF=  320 NGZF=   48
   support grid    NGXF=    32 NGYF=  320 NGZF=   48
   ions per type =              12
   NGX,Y,Z   is equivalent  to a cutoff of   7.96,  8.16,  9.12 a.u.
   NGXF,Y,Z  is equivalent  to a cutoff of  15.91, 16.32, 18.24 a.u.

 SYSTEM =  Generic Input                           
 POSCAR =  P12                                     

 Startparameter for this run:
   NWRITE =      2    write-flag & timer
   PREC   = normal    normal or accurate (medium, high low for compatibility)
   ISTART =      0    job   : 0-new  1-cont  2-samecut
   ICHARG =      2    charge: 1-file 2-atom 10-const
   ISPIN  =      1    spin polarized calculation?
   LNONCOLLINEAR =      F non collinear calculations
   LSORBIT =      F    spin-orbit coupling
   INIWAV =      1    electr: 0-lowe 1-rand  2-diag
   LASPH  =      T    aspherical Exc in radial PAW
   METAGGA=      F    non-selfconsistent MetaGGA calc.

 Electronic Relaxation 1
   ENCUT  =  400.0 eV  29.40 Ry    5.42 a.u.   5.45 53.17  7.13*2*pi/ulx,y,z
   ENINI  =  400.0     initial cutoff
   ENAUG  =  342.9 eV  augmentation charge cutoff
   NELM   =    200;   NELMIN=  2; NELMDL=  0     # of ELM steps 
   EDIFF  = 0.1E-04   stopping-criterion for ELM
   LREAL  =      F    real-space projection
   NLSPLINE    = F    spline interpolate recip. space projectors
   LCOMPAT=      F    compatible to vasp.4.4
   GGA_COMPAT  = T    GGA compatible to vasp.4.4-vasp.4.6
   LMAXPAW     = -100 max onsite density
   LMAXMIX     =    2 max onsite mixed and CHGCAR
   VOSKOWN=      0    Vosko Wilk Nusair interpolation
   ROPT   =    0.00000
 Ionic relaxation
   EDIFFG = -.2E-01   stopping-criterion for IOM
   NSW    =      0    number of steps for IOM
   NBLOCK =      1;   KBLOCK =      1    inner block; outer block 
   IBRION =     -1    ionic relax: 0-MD 1-quasi-New 2-CG
   NFREE  =      1    steps in history (QN), initial steepest desc. (CG)
   ISIF   =      3    stress and relaxation
   IWAVPR =     11    prediction:  0-non 1-charg 2-wave 3-comb
   ISYM   =      2    0-nonsym 1-usesym 2-fastsym
   LCORR  =      T    Harris-Foulkes like correction to forces

   POTIM  = 0.5000    time-step for ionic-motion
   TEIN   =    0.0    initial temperature
   TEBEG  =    0.0;   TEEND  =   0.0 temperature during run
   SMASS  =  -3.00    Nose mass-parameter (am)
   estimated Nose-frequenzy (Omega)   =  0.10E-29 period in steps =****** mass=  -0.255E-27a.u.
   SCALEE = 1.0000    scale energy and forces
   NPACO  =    256;   APACO  = 16.0  distance and # of slots for P.C.
   PSTRESS=    0.0 pullay stress

  Mass of Ions in am
   POMASS =  30.97
  Ionic Valenz
   ZVAL   =   5.00
  Atomic Wigner-Seitz radii
   RWIGS  =  -1.00
  virtual crystal weights 
   VCA    =   1.00
   NELECT =      60.0000    total number of electrons
   NUPDOWN=      -1.0000    fix difference up-down

 DOS related values:
   EMIN   =  10.00;   EMAX   =-10.00  energy-range for DOS
   EFERMI =   0.00
   ISMEAR =     0;   SIGMA  =   0.01  broadening in eV -4-tet -1-fermi 0-gaus

 Electronic relaxation 2 (details)
   IALGO  =     38    algorithm
   LDIAG  =      T    sub-space diagonalisation (order eigenvalues)
   LSUBROT=      F    optimize rotation matrix (better conditioning)
   TURBO    =      0    0=normal 1=particle mesh
   IRESTART =      0    0=no restart 2=restart with 2 vectors
   NREBOOT  =      0    no. of reboots
   NMIN     =      0    reboot dimension
   EREF     =   0.00    reference energy to select bands
   IMIX   =      4    mixing-type and parameters
     AMIX     =   0.40;   BMIX     =  1.00
     AMIX_MAG =   1.60;   BMIX_MAG =  1.00
     AMIN     =   0.10
     WC   =   100.;   INIMIX=   1;  MIXPRE=   1;  MAXMIX= -45

 Intra band minimization:
   WEIMIN = 0.0000     energy-eigenvalue tresh-hold
   EBREAK =  0.63E-07  absolut break condition
   DEPER  =   0.30     relativ break condition  

   TIME   =   0.40     timestep for ELM

  volume/ion in A,a.u.               =      39.73       268.13
  Fermi-wavevector in a.u.,A,eV,Ry     =   0.820379  1.550291  9.157011  0.673021
  Thomas-Fermi vector in A             =   1.931350
 
 Write flags
   LWAVE        =      T    write WAVECAR
   LDOWNSAMPLE  =      F    k-point downsampling of WAVECAR
   LCHARG       =      T    write CHGCAR
   LVTOT        =      F    write LOCPOT, total local potential
   LVHAR        =      T    write LOCPOT, Hartree potential only
   LELF         =      F    write electronic localiz. function (ELF)
   LORBIT       =     11    0 simple, 1 ext, 2 COOP (PROOUT), +10 PAW based schemes


 Dipole corrections
   LMONO  =      F    monopole corrections only (constant potential shift)
   LDIPOL =      F    correct potential (dipole corrections)
   IDIPOL =      0    1-x, 2-y, 3-z, 4-all directions 
   EPSILON=  1.0000000 bulk dielectric constant

 Core level calculations are selected ICORELEVEL =  1
 Exchange correlation treatment:
   GGA     =    PE    GGA type
   LEXCH   =     8    internal setting for exchange type
   VOSKOWN=      0    Vosko Wilk Nusair interpolation
   LHFCALC =     F    Hartree Fock is set to
   LHFONE  =     F    Hartree Fock one center treatment
   AEXX    =    0.0000 exact exchange contribution

 Linear response parameters
   LEPSILON=     F    determine dielectric tensor
   LRPA    =     F    only Hartree local field effects (RPA)
   LNABLA  =     F    use nabla operator in PAW spheres
   LVEL    =     F    velocity operator in full k-point grid
   LINTERFAST=   F  fast interpolation
   KINTER  =     0    interpolate to denser k-point grid
   CSHIFT  =0.1000    complex shift for real part using Kramers Kronig
   OMEGAMAX=  -1.0    maximum frequency
   DEG_THRESHOLD= 0.2000000E-02 threshold for treating states as degnerate
   RTIME   =   -0.100 relaxation time in fs
  (WPLASMAI=    0.000 imaginary part of plasma frequency in eV, 0.658/RTIME)
   DFIELD  = 0.0000000 0.0000000 0.0000000 field for delta impulse in time
 
 Orbital magnetization related:
   ORBITALMAG=     F  switch on orbital magnetization
   LCHIMAG   =     F  perturbation theory with respect to B field
   DQ        =  0.001000  dq finite difference perturbation B field
   LLRAUG    =     F  two centre corrections for induced B field



--------------------------------------------------------------------------------------------------------


 Static calculation
 charge density and potential will be updated during run
 non-spin polarized calculation
 Variant of blocked Davidson
 Davidson routine will perform the subspace rotation
 perform sub-space diagonalisation
    after iterative eigenvector-optimisation
 modified Broyden-mixing scheme, WC =      100.0
 initial mixing is a Kerker type mixing with AMIX =  0.4000 and BMIX =      1.0000
 Hartree-type preconditioning will be used
 using additional bands           10
 reciprocal scheme for non local part
 use partial core corrections
 calculate Harris-corrections to forces 
   (improved forces if not selfconsistent)
 use gradient corrections 
 use of overlap-Matrix (Vanderbilt PP)
 Gauss-broadening in eV      SIGMA  =   0.01


--------------------------------------------------------------------------------------------------------


  energy-cutoff  :      400.00
  volume of cell :      476.80
      direct lattice vectors                 reciprocal lattice vectors
     3.342886000  0.000000000  0.000000000     0.299142717  0.000000000  0.000000000
     0.000000000 32.602409000  0.000000000     0.000000000  0.030672580  0.000000000
     0.000000000  0.000000000  4.374831000     0.000000000  0.000000000  0.228580258

  length of vectors
     3.342886000 32.602409000  4.374831000     0.299142717  0.030672580  0.228580258


 
 k-points in units of 2pi/SCALE and weight: Automatic mesh                          
   0.00000000  0.00000000  0.00000000       0.024
   0.04273467  0.00000000  0.00000000       0.048
   0.08546935  0.00000000  0.00000000       0.048
   0.12820402  0.00000000  0.00000000       0.048
   0.00000000  0.00000000  0.03809671       0.048
   0.04273467  0.00000000  0.03809671       0.095
   0.08546935  0.00000000  0.03809671       0.095
   0.12820402  0.00000000  0.03809671       0.095
   0.00000000  0.00000000  0.07619342       0.048
   0.04273467  0.00000000  0.07619342       0.095
   0.08546935  0.00000000  0.07619342       0.095
   0.12820402  0.00000000  0.07619342       0.095
   0.00000000  0.00000000  0.11429013       0.024
   0.04273467  0.00000000  0.11429013       0.048
   0.08546935  0.00000000  0.11429013       0.048
   0.12820402  0.00000000  0.11429013       0.048
 
 k-points in reciprocal lattice and weights: Automatic mesh                          
   0.00000000  0.00000000  0.00000000       0.024
   0.14285714  0.00000000  0.00000000       0.048
   0.28571429  0.00000000  0.00000000       0.048
   0.42857143  0.00000000  0.00000000       0.048
   0.00000000  0.00000000  0.16666667       0.048
   0.14285714  0.00000000  0.16666667       0.095
   0.28571429  0.00000000  0.16666667       0.095
   0.42857143  0.00000000  0.16666667       0.095
   0.00000000  0.00000000  0.33333333       0.048
   0.14285714  0.00000000  0.33333333       0.095
   0.28571429  0.00000000  0.33333333       0.095
   0.42857143  0.00000000  0.33333333       0.095
   0.00000000  0.00000000  0.50000000       0.024
   0.14285714  0.00000000  0.50000000       0.048
   0.28571429  0.00000000  0.50000000       0.048
   0.42857143  0.00000000  0.50000000       0.048
 
 position of ions in fractional coordinates (direct lattice) 
   0.00000000  0.30672600  0.91892400
   0.50000000  0.30672600  0.58107600
   0.00000000  0.37246700  0.08107600
   0.50000000  0.37246700  0.41892400
   0.50000000  0.46712900  0.91892400
   0.00000000  0.46712900  0.58107600
   0.50000000  0.53287100  0.08107600
   0.00000000  0.53287100  0.41892400
   0.00000000  0.62753300  0.91892400
   0.50000000  0.62753300  0.58107600
   0.00000000  0.69327400  0.08107600
   0.50000000  0.69327400  0.41892400
 
 position of ions in cartesian coordinates  (Angst):
   0.00000000 10.00000650  4.02013720
   1.67144300 10.00000650  2.54210930
   0.00000000 12.14332147  0.35469380
   1.67144300 12.14332147  1.83272170
   1.67144300 15.22953071  4.02013720
   0.00000000 15.22953071  2.54210930
   1.67144300 17.37287829  0.35469380
   0.00000000 17.37287829  1.83272170
   0.00000000 20.45908753  4.02013720
   1.67144300 20.45908753  2.54210930
   0.00000000 22.60240250  0.35469380
   1.67144300 22.60240250  1.83272170
 


--------------------------------------------------------------------------------------------------------


 k-point  1 :   0.0000 0.0000 0.0000  plane waves:    8627
 k-point  2 :   0.1429 0.0000 0.0000  plane waves:    8663
 k-point  3 :   0.2857 0.0000 0.0000  plane waves:    8673
 k-point  4 :   0.4286 0.0000 0.0000  plane waves:    8635
 k-point  5 :   0.0000 0.0000 0.1667  plane waves:    8668
 k-point  6 :   0.1429 0.0000 0.1667  plane waves:    8676
 k-point  7 :   0.2857 0.0000 0.1667  plane waves:    8646
 k-point  8 :   0.4286 0.0000 0.1667  plane waves:    8612
 k-point  9 :   0.0000 0.0000 0.3333  plane waves:    8736
 k-point 10 :   0.1429 0.0000 0.3333  plane waves:    8699
 k-point 11 :   0.2857 0.0000 0.3333  plane waves:    8671
 k-point 12 :   0.4286 0.0000 0.3333  plane waves:    8616
 k-point 13 :   0.0000 0.0000 0.5000  plane waves:    8766
 k-point 14 :   0.1429 0.0000 0.5000  plane waves:    8716
 k-point 15 :   0.2857 0.0000 0.5000  plane waves:    8654
 k-point 16 :   0.4286 0.0000 0.5000  plane waves:    8600

 maximum and minimum number of plane-waves per node :      1119     1056

 maximum number of plane-waves:      8766
 maximum index in each direction: 
   IXMAX=    5   IYMAX=   53   IZMAX=    7
   IXMIN=   -5   IYMIN=  -53   IZMIN=   -7


 parallel 3D FFT for wavefunctions:
    minimum data exchange during FFTs selected (reduces bandwidth)
 parallel 3D FFT for charge:
    minimum data exchange during FFTs selected (reduces bandwidth)


 total amount of memory used by VASP MPI-rank0    36137. kBytes
=======================================================================

   base      :      30000. kBytes
   nonl-proj :       1361. kBytes
   fftplans  :        792. kBytes
   grid      :       1070. kBytes
   one-center:          6. kBytes
   wavefun   :       2908. kBytes
 
     INWAV:  cpu time    0.0000: real time    0.0000
 Broyden mixing: mesh for mixing (old mesh)
   NGX = 11   NGY =107   NGZ = 15
  (NGX  = 32   NGY  =320   NGZ  = 48)
  gives a total of  17655 points

 initial charge density was supplied:
 charge density of overlapping atoms calculated
 number of electron      60.0000000 magnetization 
 keeping initial charge density in first step


--------------------------------------------------------------------------------------------------------


 Maximum index for augmentation-charges          313 (set IRDMAX)


--------------------------------------------------------------------------------------------------------


 First call to EWALD:  gamma=   0.227
 Maximum number of real-space cells 6x 1x 5
 Maximum number of reciprocal cells 1x10x 2

    FEWALD:  cpu time    0.0017: real time    0.0017


--------------------------------------- Iteration      1(   1)  ---------------------------------------


    POTLOK:  cpu time    0.0246: real time    0.0411
    SETDIJ:  cpu time    0.0641: real time    0.0641
     EDDAV:  cpu time    0.7018: real time    0.7037
       DOS:  cpu time    0.0007: real time    0.0007
    --------------------------------------------
      LOOP:  cpu time    0.7912: real time    0.8096

 eigenvalue-minimisations  :  1280
 total energy-change (2. order) : 0.3366529E+03  (-0.1918932E+04)
 number of electron      60.0000000 magnetization 
 augmentation part       60.0000000 magnetization 

 Free energy of the ion-electron system (eV)
  ---------------------------------------------------
  alpha Z        PSCENC =        30.28014394
  Ewald energy   TEWEN  =     14973.24208224
  -Hartree energ DENC   =    -16928.93300519
  -exchange      EXHF   =         0.00000000
  -V(xc)+E(xc)   XCENC  =        40.33410248
  PAW double counting   =      1677.12035881    -1579.18296132
  entropy T*S    EENTRO =        -0.00070410
  eigenvalues    EBANDS =        11.30424646
  atomic energy  EATOM  =      2112.48864025
  Solvation  Ediel_sol  =         0.00000000
  ---------------------------------------------------
  free energy    TOTEN  =       336.65290357 eV

  energy without entropy =      336.65360767  energy(sigma->0) =      336.65325562


--------------------------------------------------------------------------------------------------------




--------------------------------------- Iteration      1(   2)  ---------------------------------------


     EDDAV:  cpu time    0.8582: real time    0.8610
       DOS:  cpu time    0.0007: real time    0.0007
    --------------------------------------------
      LOOP:  cpu time    0.8589: real time    0.8617

 eigenvalue-minimisations  :  1792
 total energy-change (2. order) :-0.3626469E+03  (-0.3492472E+03)
 number of electron      60.0000000 magnetization 
 augmentation part       60.0000000 magnetization 

 Free energy of the ion-electron system (eV)
  ---------------------------------------------------
  alpha Z        PSCENC =        30.28014394
  Ewald energy   TEWEN  =     14973.24208224
  -Hartree energ DENC   =    -16928.93300519
  -exchange      EXHF   =         0.00000000
  -V(xc)+E(xc)   XCENC  =        40.33410248
  PAW double counting   =      1677.12035881    -1579.18296132
  entropy T*S    EENTRO =        -0.00053080
  eigenvalues    EBANDS =      -351.34284633
  atomic energy  EATOM  =      2112.48864025
  Solvation  Ediel_sol  =         0.00000000
  ---------------------------------------------------
  free energy    TOTEN  =       -25.99401593 eV

  energy without entropy =      -25.99348513  energy(sigma->0) =      -25.99375053


--------------------------------------------------------------------------------------------------------




--------------------------------------- Iteration      1(   3)  ---------------------------------------


     EDDAV:  cpu time    0.7966: real time    0.7980
       DOS:  cpu time    0.0005: real time    0.0005
    --------------------------------------------
      LOOP:  cpu time    0.7970: real time    0.7985

 eigenvalue-minimisations  :  1544
 total energy-change (2. order) :-0.3739310E+02  (-0.3677053E+02)
 number of electron      60.0000000 magnetization 
 augmentation part       60.0000000 magnetization 

 Free energy of the ion-electron system (eV)
  ---------------------------------------------------
  alpha Z        PSCENC =        30.28014394
  Ewald energy   TEWEN  =     14973.24208224
  -Hartree energ DENC   =    -16928.93300519
  -exchange      EXHF   =         0.00000000
  -V(xc)+E(xc)   XCENC  =        40.33410248
  PAW double counting   =      1677.12035881    -1579.18296132
  entropy T*S    EENTRO =        -0.00000000
  eigenvalues    EBANDS =      -388.73648118
  atomic energy  EATOM  =      2112.48864025
  Solvation  Ediel_sol  =         0.00000000
  ---------------------------------------------------
  free energy    TOTEN  =       -63.38711998 eV

  energy without entropy =      -63.38711998  energy(sigma->0) =      -63.38711998


--------------------------------------------------------------------------------------------------------




--------------------------------------- Iteration      1(   4)  ---------------------------------------


     EDDAV:  cpu time    0.9177: real time    0.9208
       DOS:  cpu time    0.0005: real time    0.0005
    --------------------------------------------
      LOOP:  cpu time    0.9182: real time    0.9213

 eigenvalue-minimisations  :  1896
 total energy-change (2. order) :-0.1409857E+01  (-0.1401167E+01)
 number of electron      60.0000000 magnetization 
 augmentation part       60.0000000 magnetization 

 Free energy of the ion-electron system (eV)
  ---------------------------------------------------
  alpha Z        PSCENC =        30.28014394
  Ewald energy   TEWEN  =     14973.24208224
  -Hartree energ DENC   =    -16928.93300519
  -exchange      EXHF   =         0.00000000
  -V(xc)+E(xc)   XCENC  =        40.33410248
  PAW double counting   =      1677.12035881    -1579.18296132
  entropy T*S    EENTRO =        -0.00000000
  eigenvalues    EBANDS =      -390.14633825
  atomic energy  EATOM  =      2112.48864025
  Solvation  Ediel_sol  =         0.00000000
  ---------------------------------------------------
  free energy    TOTEN  =       -64.79697704 eV

  energy without entropy =      -64.79697704  energy(sigma->0) =      -64.79697704


--------------------------------------------------------------------------------------------------------




--------------------------------------- Iteration      1(   5)  ---------------------------------------


     EDDAV:  cpu time    0.8817: real time    0.8846
       DOS:  cpu time    0.0004: real time    0.0004
    CHARGE:  cpu time    0.0353: real time    0.0353
    MIXING:  cpu time    0.0007: real time    0.0007
    --------------------------------------------
      LOOP:  cpu time    0.9181: real time    0.9211

 eigenvalue-minimisations  :  1880
 total energy-change (2. order) :-0.3902452E-01  (-0.3898940E-01)
 number of electron      59.9999940 magnetization 
 augmentation part       -6.5182424 magnetization 

 Broyden mixing:
  rms(total) = 0.17531E+01    rms(broyden)= 0.17531E+01
  rms(prec ) = 0.17586E+01
  weight for this iteration     100.00

 Free energy of the ion-electron system (eV)
  ---------------------------------------------------
  alpha Z        PSCENC =        30.28014394
  Ewald energy   TEWEN  =     14973.24208224
  -Hartree energ DENC   =    -16928.93300519
  -exchange      EXHF   =         0.00000000
  -V(xc)+E(xc)   XCENC  =        40.33410248
  PAW double counting   =      1677.12035881    -1579.18296132
  entropy T*S    EENTRO =        -0.00000000
  eigenvalues    EBANDS =      -390.18536277
  atomic energy  EATOM  =      2112.48864025
  Solvation  Ediel_sol  =         0.00000000
  ---------------------------------------------------
  free energy    TOTEN  =       -64.83600156 eV

  energy without entropy =      -64.83600156  energy(sigma->0) =      -64.83600156


--------------------------------------------------------------------------------------------------------




--------------------------------------- Iteration      1(   6)  ---------------------------------------


    POTLOK:  cpu time    0.0127: real time    0.0145
    SETDIJ:  cpu time    0.0646: real time    0.0646
     EDDAV:  cpu time    0.8390: real time    0.8400
       DOS:  cpu time    0.0005: real time    0.0005
    CHARGE:  cpu time    0.0340: real time    0.0340
    MIXING:  cpu time    0.0007: real time    0.0007
    --------------------------------------------
      LOOP:  cpu time    0.9514: real time    0.9542

 eigenvalue-minimisations  :  1680
 total energy-change (2. order) : 0.3224261E+00  (-0.1976722E-01)
 number of electron      59.9999940 magnetization 
 augmentation part       -6.4801885 magnetization 

 Broyden mixing:
  rms(total) = 0.10381E+01    rms(broyden)= 0.10381E+01
  rms(prec ) = 0.10413E+01
  weight for this iteration     100.00

 eigenvalues of (default mixing * dielectric matrix)
  average eigenvalue GAMMA=   2.4437
  2.4437

 Free energy of the ion-electron system (eV)
  ---------------------------------------------------
  alpha Z        PSCENC =        30.28014394
  Ewald energy   TEWEN  =     14973.24208224
  -Hartree energ DENC   =    -16941.05928882
  -exchange      EXHF   =         0.00000000
  -V(xc)+E(xc)   XCENC  =        41.37344896
  PAW double counting   =      3129.61861483    -3032.14243488
  entropy T*S    EENTRO =        -0.00000000
  eigenvalues    EBANDS =      -378.31478198
  atomic energy  EATOM  =      2112.48864025
  Solvation  Ediel_sol  =         0.00000000
  ---------------------------------------------------
  free energy    TOTEN  =       -64.51357546 eV

  energy without entropy =      -64.51357546  energy(sigma->0) =      -64.51357546


--------------------------------------------------------------------------------------------------------




--------------------------------------- Iteration      1(   7)  ---------------------------------------


    POTLOK:  cpu time    0.0132: real time    0.0145
    SETDIJ:  cpu time    0.0646: real time    0.0646
     EDDAV:  cpu time    0.9054: real time    0.9069
       DOS:  cpu time    0.0006: real time    0.0006
    CHARGE:  cpu time    0.0348: real time    0.0348
    MIXING:  cpu time    0.0006: real time    0.0006
    --------------------------------------------
      LOOP:  cpu time    1.0191: real time    1.0219

 eigenvalue-minimisations  :  1616
 total energy-change (2. order) : 0.1473302E+00  (-0.3582192E-01)
 number of electron      59.9999940 magnetization 
 augmentation part       -6.4340750 magnetization 

 Broyden mixing:
  rms(total) = 0.44403E-01    rms(broyden)= 0.44403E-01
  rms(prec ) = 0.45697E-01
  weight for this iteration     100.00

 eigenvalues of (default mixing * dielectric matrix)
  average eigenvalue GAMMA=   2.0602
  1.5881  2.5323

 Free energy of the ion-electron system (eV)
  ---------------------------------------------------
  alpha Z        PSCENC =        30.28014394
  Ewald energy   TEWEN  =     14973.24208224
  -Hartree energ DENC   =    -16959.62992052
  -exchange      EXHF   =         0.00000000
  -V(xc)+E(xc)   XCENC  =        43.05184556
  PAW double counting   =      6220.25125915    -6123.33819042
  entropy T*S    EENTRO =        -0.00000009
  eigenvalues    EBANDS =      -360.71210533
  atomic energy  EATOM  =      2112.48864025
  Solvation  Ediel_sol  =         0.00000000
  ---------------------------------------------------
  free energy    TOTEN  =       -64.36624523 eV

  energy without entropy =      -64.36624514  energy(sigma->0) =      -64.36624519


--------------------------------------------------------------------------------------------------------




--------------------------------------- Iteration      1(   8)  ---------------------------------------


    POTLOK:  cpu time    0.0127: real time    0.0146
    SETDIJ:  cpu time    0.0646: real time    0.0646
     EDDAV:  cpu time    0.8292: real time    0.8304
       DOS:  cpu time    0.0005: real time    0.0005
    CHARGE:  cpu time    0.0342: real time    0.0342
    MIXING:  cpu time    0.0006: real time    0.0006
    --------------------------------------------
      LOOP:  cpu time    0.9418: real time    0.9449

 eigenvalue-minimisations  :  1640
 total energy-change (2. order) : 0.2054702E-03  (-0.3199250E-02)
 number of electron      59.9999940 magnetization 
 augmentation part       -6.4443939 magnetization 

 Broyden mixing:
  rms(total) = 0.23278E-01    rms(broyden)= 0.23278E-01
  rms(prec ) = 0.23950E-01
  weight for this iteration     100.00

 eigenvalues of (default mixing * dielectric matrix)
  average eigenvalue GAMMA=   1.5915
  2.5236  0.9577  1.2931

 Free energy of the ion-electron system (eV)
  ---------------------------------------------------
  alpha Z        PSCENC =        30.28014394
  Ewald energy   TEWEN  =     14973.24208224
  -Hartree energ DENC   =    -16960.84129764
  -exchange      EXHF   =         0.00000000
  -V(xc)+E(xc)   XCENC  =        43.08650262
  PAW double counting   =      6334.01029187    -6237.02584617
  entropy T*S    EENTRO =        -0.00000002
  eigenvalues    EBANDS =      -359.60655685
  atomic energy  EATOM  =      2112.48864025
  Solvation  Ediel_sol  =         0.00000000
  ---------------------------------------------------
  free energy    TOTEN  =       -64.36603976 eV

  energy without entropy =      -64.36603974  energy(sigma->0) =      -64.36603975


--------------------------------------------------------------------------------------------------------




--------------------------------------- Iteration      1(   9)  ---------------------------------------


    POTLOK:  cpu time    0.0127: real time    0.0145
    SETDIJ:  cpu time    0.0645: real time    0.0645
     EDDAV:  cpu time    0.8816: real time    0.8827
       DOS:  cpu time    0.0006: real time    0.0006
    CHARGE:  cpu time    0.0339: real time    0.0339
    MIXING:  cpu time    0.0007: real time    0.0007
    --------------------------------------------
      LOOP:  cpu time    0.9939: real time    0.9969

 eigenvalue-minimisations  :  1904
 total energy-change (2. order) : 0.1957126E-04  (-0.1774299E-03)
 number of electron      59.9999940 magnetization 
 augmentation part       -6.4447749 magnetization 

 Broyden mixing:
  rms(total) = 0.20394E-01    rms(broyden)= 0.20394E-01
  rms(prec ) = 0.20951E-01
  weight for this iteration     100.00

 eigenvalues of (default mixing * dielectric matrix)
  average eigenvalue GAMMA=   1.8543
  2.3074  2.3074  1.4011  1.4011

 Free energy of the ion-electron system (eV)
  ---------------------------------------------------
  alpha Z        PSCENC =        30.28014394
  Ewald energy   TEWEN  =     14973.24208224
  -Hartree energ DENC   =    -16961.59622431
  -exchange      EXHF   =         0.00000000
  -V(xc)+E(xc)   XCENC  =        43.09379857
  PAW double counting   =      6330.34043343    -6233.34872314
  entropy T*S    EENTRO =        -0.00000002
  eigenvalues    EBANDS =      -358.86617115
  atomic energy  EATOM  =      2112.48864025
  Solvation  Ediel_sol  =         0.00000000
  ---------------------------------------------------
  free energy    TOTEN  =       -64.36602019 eV

  energy without entropy =      -64.36602017  energy(sigma->0) =      -64.36602018


--------------------------------------------------------------------------------------------------------




--------------------------------------- Iteration      1(  10)  ---------------------------------------


    POTLOK:  cpu time    0.0138: real time    0.0158
    SETDIJ:  cpu time    0.0646: real time    0.0646
     EDDAV:  cpu time    0.7828: real time    0.7839
       DOS:  cpu time    0.0007: real time    0.0007
    CHARGE:  cpu time    0.0346: real time    0.0346
    MIXING:  cpu time    0.0007: real time    0.0007
    --------------------------------------------
      LOOP:  cpu time    0.8971: real time    0.9002

 eigenvalue-minimisations  :  1600
 total energy-change (2. order) : 0.2134977E-03  (-0.3537310E-04)
 number of electron      59.9999940 magnetization 
 augmentation part       -6.4460174 magnetization 

 Broyden mixing:
  rms(total) = 0.14868E-01    rms(broyden)= 0.14868E-01
  rms(prec ) = 0.15341E-01
  weight for this iteration     100.00

 eigenvalues of (default mixing * dielectric matrix)
  average eigenvalue GAMMA=   1.7689
  2.5430  2.5430  1.3482  1.2052  1.2052

 Free energy of the ion-electron system (eV)
  ---------------------------------------------------
  alpha Z        PSCENC =        30.28014394
  Ewald energy   TEWEN  =     14973.24208224
  -Hartree energ DENC   =    -16962.56435952
  -exchange      EXHF   =         0.00000000
  -V(xc)+E(xc)   XCENC  =        43.07833703
  PAW double counting   =      6257.06832369    -6160.05322467
  entropy T*S    EENTRO =        -0.00000001
  eigenvalues    EBANDS =      -357.90574964
  atomic energy  EATOM  =      2112.48864025
  Solvation  Ediel_sol  =         0.00000000
  ---------------------------------------------------
  free energy    TOTEN  =       -64.36580669 eV

  energy without entropy =      -64.36580668  energy(sigma->0) =      -64.36580668


--------------------------------------------------------------------------------------------------------




--------------------------------------- Iteration      1(  11)  ---------------------------------------


    POTLOK:  cpu time    0.0128: real time    0.0148
    SETDIJ:  cpu time    0.0646: real time    0.0646
     EDDAV:  cpu time    0.7881: real time    0.7892
       DOS:  cpu time    0.0006: real time    0.0006
    CHARGE:  cpu time    0.0334: real time    0.0334
    MIXING:  cpu time    0.0007: real time    0.0007
    --------------------------------------------
      LOOP:  cpu time    0.9002: real time    0.9033

 eigenvalue-minimisations  :  1624
 total energy-change (2. order) : 0.2440480E-03  (-0.4134198E-04)
 number of electron      59.9999940 magnetization 
 augmentation part       -6.4455808 magnetization 

 Broyden mixing:
  rms(total) = 0.57640E-02    rms(broyden)= 0.57640E-02
  rms(prec ) = 0.61976E-02
  weight for this iteration     100.00

 eigenvalues of (default mixing * dielectric matrix)
  average eigenvalue GAMMA=   1.7022
  2.5824  2.5824  1.4287  1.1243  1.2477  1.2477

 Free energy of the ion-electron system (eV)
  ---------------------------------------------------
  alpha Z        PSCENC =        30.28014394
  Ewald energy   TEWEN  =     14973.24208224
  -Hartree energ DENC   =    -16964.52265877
  -exchange      EXHF   =         0.00000000
  -V(xc)+E(xc)   XCENC  =        43.10971034
  PAW double counting   =      6272.11606180    -6175.09485253
  entropy T*S    EENTRO =        -0.00000002
  eigenvalues    EBANDS =      -355.98468988
  atomic energy  EATOM  =      2112.48864025
  Solvation  Ediel_sol  =         0.00000000
  ---------------------------------------------------
  free energy    TOTEN  =       -64.36556264 eV

  energy without entropy =      -64.36556263  energy(sigma->0) =      -64.36556263


--------------------------------------------------------------------------------------------------------




--------------------------------------- Iteration      1(  12)  ---------------------------------------


    POTLOK:  cpu time    0.0128: real time    0.0145
    SETDIJ:  cpu time    0.0648: real time    0.0648
     EDDAV:  cpu time    0.7826: real time    0.7838
       DOS:  cpu time    0.0006: real time    0.0006
    CHARGE:  cpu time    0.0345: real time    0.0345
    MIXING:  cpu time    0.0007: real time    0.0007
    --------------------------------------------
      LOOP:  cpu time    0.8960: real time    0.8989

 eigenvalue-minimisations  :  1584
 total energy-change (2. order) :-0.7592253E-04  (-0.6932443E-05)
 number of electron      59.9999940 magnetization 
 augmentation part       -6.4454639 magnetization 

 Broyden mixing:
  rms(total) = 0.15555E-02    rms(broyden)= 0.15555E-02
  rms(prec ) = 0.23100E-02
  weight for this iteration     100.00

 eigenvalues of (default mixing * dielectric matrix)
  average eigenvalue GAMMA=   1.8027
  3.0191  2.6441  1.7021  1.7021  1.3155  1.3155  0.9205

 Free energy of the ion-electron system (eV)
  ---------------------------------------------------
  alpha Z        PSCENC =        30.28014394
  Ewald energy   TEWEN  =     14973.24208224
  -Hartree energ DENC   =    -16965.32435673
  -exchange      EXHF   =         0.00000000
  -V(xc)+E(xc)   XCENC  =        43.11648375
  PAW double counting   =      6281.36482289    -6184.34388899
  entropy T*S    EENTRO =        -0.00000002
  eigenvalues    EBANDS =      -355.18956588
  atomic energy  EATOM  =      2112.48864025
  Solvation  Ediel_sol  =         0.00000000
  ---------------------------------------------------
  free energy    TOTEN  =       -64.36563857 eV

  energy without entropy =      -64.36563855  energy(sigma->0) =      -64.36563856


--------------------------------------------------------------------------------------------------------




--------------------------------------- Iteration      1(  13)  ---------------------------------------


    POTLOK:  cpu time    0.0142: real time    0.0143
    SETDIJ:  cpu time    0.0647: real time    0.0647
     EDDAV:  cpu time    0.7505: real time    0.7517
       DOS:  cpu time    0.0006: real time    0.0006
    CHARGE:  cpu time    0.0337: real time    0.0337
    MIXING:  cpu time    0.0008: real time    0.0008
    --------------------------------------------
      LOOP:  cpu time    0.8644: real time    0.8658

 eigenvalue-minimisations  :  1512
 total energy-change (2. order) :-0.2111278E-03  (-0.7933943E-05)
 number of electron      59.9999940 magnetization 
 augmentation part       -6.4452405 magnetization 

 Broyden mixing:
  rms(total) = 0.48390E-02    rms(broyden)= 0.48390E-02
  rms(prec ) = 0.49261E-02
  weight for this iteration     100.00

 eigenvalues of (default mixing * dielectric matrix)
  average eigenvalue GAMMA=   1.8141
  3.5245  2.4291  2.4291  1.6833  1.2028  1.2028  0.9667  1.0748

 Free energy of the ion-electron system (eV)
  ---------------------------------------------------
  alpha Z        PSCENC =        30.28014394
  Ewald energy   TEWEN  =     14973.24208224
  -Hartree energ DENC   =    -16966.59771873
  -exchange      EXHF   =         0.00000000
  -V(xc)+E(xc)   XCENC  =        43.12670953
  PAW double counting   =      6291.45083753    -6194.42949757
  entropy T*S    EENTRO =        -0.00000002
  eigenvalues    EBANDS =      -353.92704686
  atomic energy  EATOM  =      2112.48864025
  Solvation  Ediel_sol  =         0.00000000
  ---------------------------------------------------
  free energy    TOTEN  =       -64.36584969 eV

  energy without entropy =      -64.36584967  energy(sigma->0) =      -64.36584968


--------------------------------------------------------------------------------------------------------




--------------------------------------- Iteration      1(  14)  ---------------------------------------


    POTLOK:  cpu time    0.0128: real time    0.0146
    SETDIJ:  cpu time    0.0647: real time    0.0647
     EDDAV:  cpu time    0.6702: real time    0.6714
       DOS:  cpu time    0.0006: real time    0.0006
    CHARGE:  cpu time    0.0343: real time    0.0343
    MIXING:  cpu time    0.0008: real time    0.0008
    --------------------------------------------
      LOOP:  cpu time    0.7834: real time    0.7863

 eigenvalue-minimisations  :  1272
 total energy-change (2. order) :-0.1408574E-03  (-0.1982896E-05)
 number of electron      59.9999940 magnetization 
 augmentation part       -6.4451610 magnetization 

 Broyden mixing:
  rms(total) = 0.40642E-02    rms(broyden)= 0.40642E-02
  rms(prec ) = 0.41142E-02
  weight for this iteration     100.00

 eigenvalues of (default mixing * dielectric matrix)
  average eigenvalue GAMMA=   1.6300
  3.4005  2.4364  2.4364  1.6804  1.2280  1.2280  1.1134  0.9308  0.2160

 Free energy of the ion-electron system (eV)
  ---------------------------------------------------
  alpha Z        PSCENC =        30.28014394
  Ewald energy   TEWEN  =     14973.24208224
  -Hartree energ DENC   =    -16967.06867730
  -exchange      EXHF   =         0.00000000
  -V(xc)+E(xc)   XCENC  =        43.12820382
  PAW double counting   =      6288.71783427    -6191.69666199
  entropy T*S    EENTRO =        -0.00000002
  eigenvalues    EBANDS =      -353.45755574
  atomic energy  EATOM  =      2112.48864025
  Solvation  Ediel_sol  =         0.00000000
  ---------------------------------------------------
  free energy    TOTEN  =       -64.36599055 eV

  energy without entropy =      -64.36599053  energy(sigma->0) =      -64.36599054


--------------------------------------------------------------------------------------------------------




--------------------------------------- Iteration      1(  15)  ---------------------------------------


    POTLOK:  cpu time    0.0130: real time    0.0150
    SETDIJ:  cpu time    0.0646: real time    0.0646
     EDDAV:  cpu time    0.5845: real time    0.5856
       DOS:  cpu time    0.0006: real time    0.0006
    CHARGE:  cpu time    0.0342: real time    0.0342
    MIXING:  cpu time    0.0008: real time    0.0008
    --------------------------------------------
      LOOP:  cpu time    0.6977: real time    0.7008

 eigenvalue-minimisations  :  1016
 total energy-change (2. order) :-0.2175008E-04  (-0.2114826E-06)
 number of electron      59.9999940 magnetization 
 augmentation part       -6.4451696 magnetization 

 Broyden mixing:
  rms(total) = 0.31409E-02    rms(broyden)= 0.31409E-02
  rms(prec ) = 0.32008E-02
  weight for this iteration     100.00

 eigenvalues of (default mixing * dielectric matrix)
  average eigenvalue GAMMA=   1.9193
  4.7130  2.6016  2.0517  2.0517  1.5374  1.5374  1.3737  1.3737  0.9764  0.9764

 Free energy of the ion-electron system (eV)
  ---------------------------------------------------
  alpha Z        PSCENC =        30.28014394
  Ewald energy   TEWEN  =     14973.24208224
  -Hartree energ DENC   =    -16967.07978310
  -exchange      EXHF   =         0.00000000
  -V(xc)+E(xc)   XCENC  =        43.12778967
  PAW double counting   =      6286.95647934    -6189.93537360
  entropy T*S    EENTRO =        -0.00000002
  eigenvalues    EBANDS =      -353.44599101
  atomic energy  EATOM  =      2112.48864025
  Solvation  Ediel_sol  =         0.00000000
  ---------------------------------------------------
  free energy    TOTEN  =       -64.36601230 eV

  energy without entropy =      -64.36601228  energy(sigma->0) =      -64.36601229


--------------------------------------------------------------------------------------------------------




--------------------------------------- Iteration      1(  16)  ---------------------------------------


    POTLOK:  cpu time    0.0148: real time    0.0150
    SETDIJ:  cpu time    0.0645: real time    0.0645
     EDDAV:  cpu time    0.6694: real time    0.6704
       DOS:  cpu time    0.0006: real time    0.0006
    CHARGE:  cpu time    0.0358: real time    0.0358
    MIXING:  cpu time    0.0010: real time    0.0010
    --------------------------------------------
      LOOP:  cpu time    0.7861: real time    0.7873

 eigenvalue-minimisations  :  1272
 total energy-change (2. order) :-0.2356137E-03  (-0.2098184E-05)
 number of electron      59.9999940 magnetization 
 augmentation part       -6.4451024 magnetization 

 Broyden mixing:
  rms(total) = 0.23966E-02    rms(broyden)= 0.23966E-02
  rms(prec ) = 0.24090E-02
  weight for this iteration     100.00

 eigenvalues of (default mixing * dielectric matrix)
  average eigenvalue GAMMA=   1.9939
  6.3978  2.7203  2.1723  2.1582  2.1582  1.3340  1.3340  1.0685  0.8750  0.8575
  0.8575

 Free energy of the ion-electron system (eV)
  ---------------------------------------------------
  alpha Z        PSCENC =        30.28014394
  Ewald energy   TEWEN  =     14973.24208224
  -Hartree energ DENC   =    -16967.69393803
  -exchange      EXHF   =         0.00000000
  -V(xc)+E(xc)   XCENC  =        43.12748612
  PAW double counting   =      6275.91271436    -6178.89098931
  entropy T*S    EENTRO =        -0.00000002
  eigenvalues    EBANDS =      -352.83238746
  atomic energy  EATOM  =      2112.48864025
  Solvation  Ediel_sol  =         0.00000000
  ---------------------------------------------------
  free energy    TOTEN  =       -64.36624791 eV

  energy without entropy =      -64.36624789  energy(sigma->0) =      -64.36624790


--------------------------------------------------------------------------------------------------------




--------------------------------------- Iteration      1(  17)  ---------------------------------------


    POTLOK:  cpu time    0.0131: real time    0.0151
    SETDIJ:  cpu time    0.0645: real time    0.0645
     EDDAV:  cpu time    0.6430: real time    0.6440
       DOS:  cpu time    0.0006: real time    0.0006
    CHARGE:  cpu time    0.0349: real time    0.0349
    MIXING:  cpu time    0.0009: real time    0.0009
    --------------------------------------------
      LOOP:  cpu time    0.7569: real time    0.7601

 eigenvalue-minimisations  :  1168
 total energy-change (2. order) :-0.4686404E-04  (-0.4433165E-06)
 number of electron      59.9999940 magnetization 
 augmentation part       -6.4451036 magnetization 

 Broyden mixing:
  rms(total) = 0.23043E-02    rms(broyden)= 0.23043E-02
  rms(prec ) = 0.23099E-02
  weight for this iteration     100.00

 eigenvalues of (default mixing * dielectric matrix)
  average eigenvalue GAMMA=   1.8445
  6.4444  2.6891  2.2271  2.2271  1.9134  1.3167  1.3167  1.1128  0.8595  0.7858
  0.7858  0.4552

 Free energy of the ion-electron system (eV)
  ---------------------------------------------------
  alpha Z        PSCENC =        30.28014394
  Ewald energy   TEWEN  =     14973.24208224
  -Hartree energ DENC   =    -16967.86488123
  -exchange      EXHF   =         0.00000000
  -V(xc)+E(xc)   XCENC  =        43.12769976
  PAW double counting   =      6276.08016073    -6179.05854552
  entropy T*S    EENTRO =        -0.00000003
  eigenvalues    EBANDS =      -352.66159492
  atomic energy  EATOM  =      2112.48864025
  Solvation  Ediel_sol  =         0.00000000
  ---------------------------------------------------
  free energy    TOTEN  =       -64.36629478 eV

  energy without entropy =      -64.36629475  energy(sigma->0) =      -64.36629477


--------------------------------------------------------------------------------------------------------




--------------------------------------- Iteration      1(  18)  ---------------------------------------


    POTLOK:  cpu time    0.0132: real time    0.0149
    SETDIJ:  cpu time    0.0645: real time    0.0645
     EDDAV:  cpu time    0.5835: real time    0.5846
       DOS:  cpu time    0.0006: real time    0.0006
    --------------------------------------------
      LOOP:  cpu time    0.7447: real time    0.7475

 eigenvalue-minimisations  :  1024
 total energy-change (2. order) :-0.1867792E-05  (-0.4809774E-07)
 number of electron      59.9999940 magnetization 
 augmentation part       -6.4451036 magnetization 

 Free energy of the ion-electron system (eV)
  ---------------------------------------------------
  alpha Z        PSCENC =        30.28014394
  Ewald energy   TEWEN  =     14973.24208224
  -Hartree energ DENC   =    -16967.87133102
  -exchange      EXHF   =         0.00000000
  -V(xc)+E(xc)   XCENC  =        43.12777199
  PAW double counting   =      6276.57937905    -6179.55771794
  entropy T*S    EENTRO =        -0.00000003
  eigenvalues    EBANDS =      -352.65526512
  atomic energy  EATOM  =      2112.48864025
  Solvation  Ediel_sol  =         0.00000000
  ---------------------------------------------------
  free energy    TOTEN  =       -64.36629665 eV

  energy without entropy =      -64.36629662  energy(sigma->0) =      -64.36629663


--------------------------------------------------------------------------------------------------------




 the core state eigenenergies are
   1-  1s  -2078.3950  2s   -168.4255  2p   -118.9112
   2-  1s  -2078.3950  2s   -168.4255  2p   -118.9112
   3-  1s  -2078.4541  2s   -168.4789  2p   -118.9650
   4-  1s  -2078.4541  2s   -168.4789  2p   -118.9650
   5-  1s  -2078.4843  2s   -168.5100  2p   -118.9961
   6-  1s  -2078.4843  2s   -168.5100  2p   -118.9961
   7-  1s  -2078.4843  2s   -168.5100  2p   -118.9961
   8-  1s  -2078.4843  2s   -168.5100  2p   -118.9961
   9-  1s  -2078.4541  2s   -168.4789  2p   -118.9650
  10-  1s  -2078.4541  2s   -168.4789  2p   -118.9650
  11-  1s  -2078.3950  2s   -168.4255  2p   -118.9112
  12-  1s  -2078.3950  2s   -168.4255  2p   -118.9112
 
 E-fermi :   0.9343     XC(G=0):  -5.1379     alpha+bet : -5.5572


 k-point     1 :       0.0000    0.0000    0.0000
  band No.  band energies     occupation 
      1     -14.8593      2.00000
      2     -14.7386      2.00000
      3     -14.6701      2.00000
      4     -12.3784      2.00000
      5     -12.1320      2.00000
      6     -11.9525      2.00000
      7      -8.6117      2.00000
      8      -8.5273      2.00000
      9      -8.4971      2.00000
     10      -5.9294      2.00000
     11      -5.5499      2.00000
     12      -5.1316      2.00000
     13      -4.5109      2.00000
     14      -4.5092      2.00000
     15      -4.1929      2.00000
     16      -4.1472      2.00000
     17      -3.9999      2.00000
     18      -3.9273      2.00000
     19      -3.3985      2.00000
     20      -3.2973      2.00000
     21      -3.2476      2.00000
     22      -1.8844      2.00000
     23      -1.7414      2.00000
     24      -1.6292      2.00000
     25      -1.5938      2.00000
     26      -1.5090      2.00000
     27      -1.1127      2.00000
     28      -0.2554      2.00000
     29       0.3489      2.00000
     30       0.9038      1.99998
     31       0.9647      0.00002
     32       1.4925      0.00000
     33       1.5184      0.00000
     34       1.6919      0.00000
     35       1.7011      0.00000
     36       1.8568      0.00000
     37       2.7258      0.00000
     38       2.8968      0.00000
     39       2.9673      0.00000
     40       3.7026      0.00000

 k-point     2 :       0.1429    0.0000    0.0000
  band No.  band energies     occupation 
      1     -14.6214      2.00000
      2     -14.5015      2.00000
      3     -14.4339      2.00000
      4     -12.1309      2.00000
      5     -11.8855      2.00000
      6     -11.7068      2.00000
      7      -8.8128      2.00000
      8      -8.7461      2.00000
      9      -8.7347      2.00000
     10      -5.7277      2.00000
     11      -5.3535      2.00000
     12      -4.9518      2.00000
     13      -4.8051      2.00000
     14      -4.6837      2.00000
     15      -4.6115      2.00000
     16      -4.2982      2.00000
     17      -4.2532      2.00000
     18      -4.1646      2.00000
     19      -4.1617      2.00000
     20      -3.9487      2.00000
     21      -3.8036      2.00000
     22      -2.5111      2.00000
     23      -2.4136      2.00000
     24      -2.3000      2.00000
     25      -1.7764      2.00000
     26      -1.5090      2.00000
     27      -1.0014      2.00000
     28      -0.2031      2.00000
     29       0.2484      2.00000
     30       0.5791      2.00000
     31       1.1758      0.00000
     32       1.6369      0.00000
     33       1.8526      0.00000
     34       2.5611      0.00000
     35       2.7523      0.00000
     36       2.8139      0.00000
     37       3.2504      0.00000
     38       3.3904      0.00000
     39       3.5056      0.00000
     40       4.1446      0.00000

 k-point     3 :       0.2857    0.0000    0.0000
  band No.  band energies     occupation 
      1     -13.9166      2.00000
      2     -13.7996      2.00000
      3     -13.7350      2.00000
      4     -11.3929      2.00000
      5     -11.1508      2.00000
      6     -10.9747      2.00000
      7      -9.7579      2.00000
      8      -9.6902      2.00000
      9      -9.6779      2.00000
     10      -6.5398      2.00000
     11      -6.3658      2.00000
     12      -6.2486      2.00000
     13      -5.1687      2.00000
     14      -4.9315      2.00000
     15      -4.8801      2.00000
     16      -4.8664      2.00000
     17      -4.8209      2.00000
     18      -4.4865      2.00000
     19      -3.6973      2.00000
     20      -3.3966      2.00000
     21      -3.2637      2.00000
     22      -2.8086      2.00000
     23      -2.5134      2.00000
     24      -2.2541      2.00000
     25      -1.7035      2.00000
     26      -1.4231      2.00000
     27      -1.0187      2.00000
     28      -0.5249      2.00000
     29      -0.4276      2.00000
     30      -0.4198      2.00000
     31       1.1481      0.00000
     32       1.2456      0.00000
     33       1.5367      0.00000
     34       1.8475      0.00000
     35       2.4555      0.00000
     36       2.6651      0.00000
     37       2.8151      0.00000
     38       3.1365      0.00000
     39       3.1790      0.00000
     40       3.2152      0.00000

 k-point     4 :       0.4286    0.0000    0.0000
  band No.  band energies     occupation 
      1     -12.7790      2.00000
      2     -12.6682      2.00000
      3     -12.6102      2.00000
      4     -11.3010      2.00000
      5     -11.2037      2.00000
      6     -11.1600      2.00000
      7     -10.1797      2.00000
      8      -9.9445      2.00000
      9      -9.7739      2.00000
     10      -8.5277      2.00000
     11      -8.3075      2.00000
     12      -8.1493      2.00000
     13      -4.6462      2.00000
     14      -4.5680      2.00000
     15      -4.5677      2.00000
     16      -4.5378      2.00000
     17      -4.3034      2.00000
     18      -4.1551      2.00000
     19      -2.8589      2.00000
     20      -2.6918      2.00000
     21      -2.6113      2.00000
     22      -2.4457      2.00000
     23      -2.2520      2.00000
     24      -2.1650      2.00000
     25      -2.0484      2.00000
     26      -1.7859      2.00000
     27      -1.6858      2.00000
     28      -1.5318      2.00000
     29      -1.4323      2.00000
     30      -1.2060      2.00000
     31       1.4684      0.00000
     32       1.4860      0.00000
     33       1.6433      0.00000
     34       1.7447      0.00000
     35       1.8328      0.00000
     36       1.8429      0.00000
     37       1.8608      0.00000
     38       2.0497      0.00000
     39       2.1306      0.00000
     40       2.7735      0.00000

 k-point     5 :       0.0000    0.0000    0.1667
  band No.  band energies     occupation 
      1     -14.7015      2.00000
      2     -14.5838      2.00000
      3     -14.5184      2.00000
      4     -12.4621      2.00000
      5     -12.2700      2.00000
      6     -12.1513      2.00000
      7      -8.8389      2.00000
      8      -8.7565      2.00000
      9      -8.7150      2.00000
     10      -6.2324      2.00000
     11      -6.0878      2.00000
     12      -6.0621      2.00000
     13      -4.5156      2.00000
     14      -4.3326      2.00000
     15      -3.8376      2.00000
     16      -3.7058      2.00000
     17      -3.3158      2.00000
     18      -3.3143      2.00000
     19      -3.2729      2.00000
     20      -3.1752      2.00000
     21      -3.1293      2.00000
     22      -1.7918      2.00000
     23      -1.6663      2.00000
     24      -1.6038      2.00000
     25      -1.1259      2.00000
     26      -0.9392      2.00000
     27      -0.8252      2.00000
     28      -0.6122      2.00000
     29      -0.3986      2.00000
     30       0.0679      2.00000
     31       1.5055      0.00000
     32       1.8516      0.00000
     33       1.8864      0.00000
     34       1.9413      0.00000
     35       2.1905      0.00000
     36       2.4864      0.00000
     37       2.5738      0.00000
     38       2.6058      0.00000
     39       2.6374      0.00000
     40       3.4848      0.00000

 k-point     6 :       0.1429    0.0000    0.1667
  band No.  band energies     occupation 
      1     -14.4650      2.00000
      2     -14.3482      2.00000
      3     -14.2838      2.00000
      4     -12.2218      2.00000
      5     -12.0324      2.00000
      6     -11.9166      2.00000
      7      -8.9388      2.00000
      8      -8.8533      2.00000
      9      -8.8107      2.00000
     10      -6.1631      2.00000
     11      -6.0085      2.00000
     12      -5.9951      2.00000
     13      -4.7747      2.00000
     14      -4.7065      2.00000
     15      -4.5173      2.00000
     16      -4.4871      2.00000
     17      -4.2403      2.00000
     18      -3.8436      2.00000
     19      -3.1452      2.00000
     20      -3.0053      2.00000
     21      -2.8971      2.00000
     22      -2.8141      2.00000
     23      -2.7019      2.00000
     24      -2.6435      2.00000
     25      -1.0036      2.00000
     26      -0.9900      2.00000
     27      -0.8783      2.00000
     28      -0.6456      2.00000
     29      -0.3861      2.00000
     30       0.0122      2.00000
     31       1.6570      0.00000
     32       2.0200      0.00000
     33       2.3450      0.00000
     34       2.6272      0.00000
     35       2.7589      0.00000
     36       2.9219      0.00000
     37       3.3962      0.00000
     38       3.4785      0.00000
     39       3.4801      0.00000
     40       4.1806      0.00000

 k-point     7 :       0.2857    0.0000    0.1667
  band No.  band energies     occupation 
      1     -13.7663      2.00000
      2     -13.6525      2.00000
      3     -13.5913      2.00000
      4     -11.5274      2.00000
      5     -11.3537      2.00000
      6     -11.2548      2.00000
      7      -9.6252      2.00000
      8      -9.5133      2.00000
      9      -9.4472      2.00000
     10      -6.7600      2.00000
     11      -6.6609      2.00000
     12      -6.6236      2.00000
     13      -5.5571      2.00000
     14      -5.4362      2.00000
     15      -5.3360      2.00000
     16      -4.9541      2.00000
     17      -4.6659      2.00000
     18      -4.5592      2.00000
     19      -3.1155      2.00000
     20      -3.1062      2.00000
     21      -2.9262      2.00000
     22      -2.7166      2.00000
     23      -2.5458      2.00000
     24      -2.5441      2.00000
     25      -1.7817      2.00000
     26      -1.5569      2.00000
     27      -1.1733      2.00000
     28      -0.8506      2.00000
     29      -0.5552      2.00000
     30      -0.4955      2.00000
     31       1.7574      0.00000
     32       1.7877      0.00000
     33       2.0430      0.00000
     34       2.2721      0.00000
     35       2.3610      0.00000
     36       2.5782      0.00000
     37       2.7465      0.00000
     38       2.8464      0.00000
     39       3.0918      0.00000
     40       3.7047      0.00000

 k-point     8 :       0.4286    0.0000    0.1667
  band No.  band energies     occupation 
      1     -12.6487      2.00000
      2     -12.5419      2.00000
      3     -12.4881      2.00000
      4     -11.2982      2.00000
      5     -11.2088      2.00000
      6     -11.1747      2.00000
      7     -10.0955      2.00000
      8      -9.8868      2.00000
      9      -9.7435      2.00000
     10      -8.5768      2.00000
     11      -8.3963      2.00000
     12      -8.2811      2.00000
     13      -5.1698      2.00000
     14      -5.0478      2.00000
     15      -4.9520      2.00000
     16      -4.5849      2.00000
     17      -4.3871      2.00000
     18      -4.2913      2.00000
     19      -3.3307      2.00000
     20      -3.1420      2.00000
     21      -3.0459      2.00000
     22      -2.8243      2.00000
     23      -2.7536      2.00000
     24      -2.7187      2.00000
     25      -1.9857      2.00000
     26      -1.6918      2.00000
     27      -1.2687      2.00000
     28      -1.2256      2.00000
     29      -0.9800      2.00000
     30      -0.8731      2.00000
     31       1.4453      0.00000
     32       1.5755      0.00000
     33       1.6283      0.00000
     34       1.9875      0.00000
     35       2.1719      0.00000
     36       2.1749      0.00000
     37       2.7723      0.00000
     38       2.8514      0.00000
     39       3.0194      0.00000
     40       3.0825      0.00000

 k-point     9 :       0.0000    0.0000    0.3333
  band No.  band energies     occupation 
      1     -14.2444      2.00000
      2     -14.1378      2.00000
      3     -14.0845      2.00000
      4     -12.8326      2.00000
      5     -12.7528      2.00000
      6     -12.7424      2.00000
      7      -9.0401      2.00000
      8      -8.8102      2.00000
      9      -8.6153      2.00000
     10      -7.5595      2.00000
     11      -7.2443      2.00000
     12      -6.9939      2.00000
     13      -4.3663      2.00000
     14      -3.6968      2.00000
     15      -2.9307      2.00000
     16      -2.9203      2.00000
     17      -2.8349      2.00000
     18      -2.8023      2.00000
     19      -2.5479      2.00000
     20      -2.3312      2.00000
     21      -2.1222      2.00000
     22      -1.9989      2.00000
     23      -1.9242      2.00000
     24      -1.9110      2.00000
     25      -1.8274      2.00000
     26      -1.5795      2.00000
     27      -0.9357      2.00000
     28       0.1458      2.00000
     29       0.1746      2.00000
     30       0.2123      2.00000
     31       1.8782      0.00000
     32       1.9213      0.00000
     33       2.0171      0.00000
     34       2.0450      0.00000
     35       2.2090      0.00000
     36       2.2769      0.00000
     37       2.8401      0.00000
     38       3.1939      0.00000
     39       3.2382      0.00000
     40       3.3071      0.00000

 k-point    10 :       0.1429    0.0000    0.3333
  band No.  band energies     occupation 
      1     -14.0124      2.00000
      2     -13.9066      2.00000
      3     -13.8542      2.00000
      4     -12.6062      2.00000
      5     -12.5282      2.00000
      6     -12.5191      2.00000
      7      -8.9873      2.00000
      8      -8.7661      2.00000
      9      -8.5846      2.00000
     10      -7.4456      2.00000
     11      -7.1563      2.00000
     12      -6.9317      2.00000
     13      -4.5728      2.00000
     14      -4.4766      2.00000
     15      -4.3283      2.00000
     16      -4.1843      2.00000
     17      -3.6454      2.00000
     18      -3.4758      2.00000
     19      -3.3244      2.00000
     20      -3.2263      2.00000
     21      -2.7397      2.00000
     22      -2.3317      2.00000
     23      -1.8000      2.00000
     24      -1.7455      2.00000
     25      -1.3889      2.00000
     26      -1.2437      2.00000
     27      -0.8114      2.00000
     28      -0.5822      2.00000
     29      -0.4381      2.00000
     30      -0.2403      2.00000
     31       2.4035      0.00000
     32       2.7320      0.00000
     33       2.7825      0.00000
     34       3.1228      0.00000
     35       3.2015      0.00000
     36       3.2899      0.00000
     37       3.3181      0.00000
     38       3.5047      0.00000
     39       3.7011      0.00000
     40       3.7756      0.00000

 k-point    11 :       0.2857    0.0000    0.3333
  band No.  band energies     occupation 
      1     -13.3327      2.00000
      2     -13.2300      2.00000
      3     -13.1809      2.00000
      4     -11.9705      2.00000
      5     -11.8995      2.00000
      6     -11.8952      2.00000
      7      -9.1980      2.00000
      8      -9.0145      2.00000
      9      -8.8843      2.00000
     10      -7.5246      2.00000
     11      -7.3899      2.00000
     12      -7.3274      2.00000
     13      -5.8995      2.00000
     14      -5.7074      2.00000
     15      -5.5606      2.00000
     16      -5.0509      2.00000
     17      -4.8969      2.00000
     18      -4.8368      2.00000
     19      -3.6428      2.00000
     20      -3.2361      2.00000
     21      -2.8724      2.00000
     22      -2.4643      2.00000
     23      -2.1810      2.00000
     24      -2.0533      2.00000
     25      -2.0046      2.00000
     26      -1.6537      2.00000
     27      -1.2942      2.00000
     28      -1.1994      2.00000
     29      -0.8246      2.00000
     30      -0.5521      2.00000
     31       1.9695      0.00000
     32       2.2263      0.00000
     33       2.3873      0.00000
     34       2.9035      0.00000
     35       2.9510      0.00000
     36       3.4910      0.00000
     37       3.6230      0.00000
     38       3.8912      0.00000
     39       3.8922      0.00000
     40       4.0572      0.00000

 k-point    12 :       0.4286    0.0000    0.3333
  band No.  band energies     occupation 
      1     -12.2864      2.00000
      2     -12.1931      2.00000
      3     -12.1539      2.00000
      4     -11.4091      2.00000
      5     -11.3457      2.00000
      6     -11.3400      2.00000
      7      -9.8069      2.00000
      8      -9.6571      2.00000
      9      -9.5717      2.00000
     10      -8.8004      2.00000
     11      -8.7120      2.00000
     12      -8.6901      2.00000
     13      -5.6577      2.00000
     14      -5.4350      2.00000
     15      -5.2398      2.00000
     16      -4.7834      2.00000
     17      -4.6706      2.00000
     18      -4.5874      2.00000
     19      -4.1319      2.00000
     20      -4.0785      2.00000
     21      -4.0127      2.00000
     22      -3.5716      2.00000
     23      -3.2962      2.00000
     24      -3.1036      2.00000
     25      -1.9908      2.00000
     26      -1.4981      2.00000
     27      -1.0508      2.00000
     28      -1.0116      2.00000
     29      -0.9575      2.00000
     30      -0.8578      2.00000
     31       2.0532      0.00000
     32       2.4291      0.00000
     33       2.7609      0.00000
     34       2.9767      0.00000
     35       3.1279      0.00000
     36       3.1778      0.00000
     37       3.3073      0.00000
     38       3.3184      0.00000
     39       3.4507      0.00000
     40       3.9491      0.00000

 k-point    13 :       0.0000    0.0000    0.5000
  band No.  band energies     occupation 
      1     -13.5516      2.00000
      2     -13.5516      2.00000
      3     -13.4815      2.00000
      4     -13.4815      2.00000
      5     -13.4349      2.00000
      6     -13.4349      2.00000
      7      -8.5761      2.00000
      8      -8.5761      2.00000
      9      -8.2591      2.00000
     10      -8.2591      2.00000
     11      -7.9857      2.00000
     12      -7.9857      2.00000
     13      -3.5965      2.00000
     14      -3.5965      2.00000
     15      -2.8331      2.00000
     16      -2.8331      2.00000
     17      -2.4276      2.00000
     18      -2.4276      2.00000
     19      -2.3833      2.00000
     20      -2.3833      2.00000
     21      -2.3375      2.00000
     22      -2.3375      2.00000
     23      -2.0283      2.00000
     24      -2.0283      2.00000
     25      -0.7323      2.00000
     26      -0.7323      2.00000
     27      -0.5243      2.00000
     28      -0.5243      2.00000
     29      -0.4519      2.00000
     30      -0.4519      2.00000
     31       2.1852      0.00000
     32       2.1852      0.00000
     33       2.2293      0.00000
     34       2.2293      0.00000
     35       2.2823      0.00000
     36       2.2823      0.00000
     37       3.4128      0.00000
     38       3.4131      0.00000
     39       3.5603      0.00000
     40       3.5873      0.00000

 k-point    14 :       0.1429    0.0000    0.5000
  band No.  band energies     occupation 
      1     -13.3261      2.00000
      2     -13.3261      2.00000
      3     -13.2561      2.00000
      4     -13.2561      2.00000
      5     -13.2102      2.00000
      6     -13.2102      2.00000
      7      -8.4617      2.00000
      8      -8.4617      2.00000
      9      -8.1626      2.00000
     10      -8.1626      2.00000
     11      -7.9118      2.00000
     12      -7.9118      2.00000
     13      -4.0352      2.00000
     14      -4.0352      2.00000
     15      -3.9479      2.00000
     16      -3.9479      2.00000
     17      -3.8491      2.00000
     18      -3.8491      2.00000
     19      -3.3974      2.00000
     20      -3.3974      2.00000
     21      -2.6734      2.00000
     22      -2.6734      2.00000
     23      -1.9672      2.00000
     24      -1.9672      2.00000
     25      -0.6413      2.00000
     26      -0.6413      2.00000
     27      -0.5259      2.00000
     28      -0.5259      2.00000
     29      -0.4426      2.00000
     30      -0.4426      2.00000
     31       2.8476      0.00000
     32       2.8476      0.00000
     33       2.8926      0.00000
     34       2.8926      0.00000
     35       2.9895      0.00000
     36       2.9895      0.00000
     37       3.3101      0.00000
     38       3.3101      0.00000
     39       3.8701      0.00000
     40       3.8702      0.00000

 k-point    15 :       0.2857    0.0000    0.5000
  band No.  band energies     occupation 
      1     -12.6777      2.00000
      2     -12.6777      2.00000
      3     -12.6087      2.00000
      4     -12.6087      2.00000
      5     -12.5659      2.00000
      6     -12.5659      2.00000
      7      -8.4609      2.00000
      8      -8.4609      2.00000
      9      -8.2613      2.00000
     10      -8.2613      2.00000
     11      -8.1268      2.00000
     12      -8.1268      2.00000
     13      -5.6468      2.00000
     14      -5.6468      2.00000
     15      -5.4415      2.00000
     16      -5.4415      2.00000
     17      -5.2599      2.00000
     18      -5.2599      2.00000
     19      -3.2282      2.00000
     20      -3.2282      2.00000
     21      -2.7491      2.00000
     22      -2.7491      2.00000
     23      -2.3974      2.00000
     24      -2.3974      2.00000
     25      -1.7697      2.00000
     26      -1.7697      2.00000
     27      -1.3075      2.00000
     28      -1.3075      2.00000
     29      -0.8022      2.00000
     30      -0.8022      2.00000
     31       2.7366      0.00000
     32       2.7366      0.00000
     33       3.3899      0.00000
     34       3.3899      0.00000
     35       3.6609      0.00000
     36       3.6609      0.00000
     37       3.9546      0.00000
     38       3.9546      0.00000
     39       3.9792      0.00000
     40       3.9792      0.00000

 k-point    16 :       0.4286    0.0000    0.5000
  band No.  band energies     occupation 
      1     -11.7954      2.00000
      2     -11.7954      2.00000
      3     -11.7350      2.00000
      4     -11.7350      2.00000
      5     -11.7082      2.00000
      6     -11.7082      2.00000
      7      -9.2986      2.00000
      8      -9.2986      2.00000
      9      -9.2131      2.00000
     10      -9.2131      2.00000
     11      -9.1827      2.00000
     12      -9.1827      2.00000
     13      -5.4984      2.00000
     14      -5.4984      2.00000
     15      -5.1988      2.00000
     16      -5.1988      2.00000
     17      -4.9350      2.00000
     18      -4.9350      2.00000
     19      -4.2886      2.00000
     20      -4.2886      2.00000
     21      -3.9781      2.00000
     22      -3.9781      2.00000
     23      -3.7142      2.00000
     24      -3.7142      2.00000
     25      -1.5631      2.00000
     26      -1.5631      2.00000
     27      -1.1380      2.00000
     28      -1.1380      2.00000
     29      -0.9520      2.00000
     30      -0.9520      2.00000
     31       2.6163      0.00000
     32       2.6163      0.00000
     33       2.7801      0.00000
     34       2.7801      0.00000
     35       3.2664      0.00000
     36       3.2664      0.00000
     37       4.5322      0.00000
     38       4.5439      0.00000
     39       4.5797      0.00000
     40       4.5878      0.00000


--------------------------------------------------------------------------------------------------------


 soft charge-density along one line, spin component           1
         0         1         2         3         4         5         6         7         8         9
 total charge-density along one line
 
 pseudopotential strength for first ion, spin component:           1
 29.686  37.032   0.035  -0.033  -0.000   0.055  -0.052   0.000
 37.032  46.200   0.044  -0.041   0.000   0.068  -0.064  -0.000
  0.035   0.044   6.554   0.006  -0.000  10.135   0.009  -0.000
 -0.033  -0.041   0.006   6.558  -0.000   0.009  10.141  -0.000
 -0.000   0.000  -0.000  -0.000   6.562  -0.000  -0.000  10.148
  0.055   0.068  10.135   0.009  -0.000  15.692   0.014  -0.000
 -0.052  -0.064   0.009  10.141  -0.000   0.014  15.701  -0.000
  0.000  -0.000  -0.000  -0.000  10.148  -0.000  -0.000  15.711
 total augmentation occupancy for first ion, spin component:           1
  8.296  -4.728   1.851  -1.946   0.000  -0.592   0.649   0.000
 -4.728   3.433  -1.590   1.651  -0.000   0.438  -0.476   0.000
  1.851  -1.590   3.128   0.196   0.000  -0.824  -0.162   0.000
 -1.946   1.651   0.196   3.270   0.000  -0.161  -0.922   0.000
  0.000   0.000   0.000   0.000   3.397   0.000   0.000  -1.025
 -0.592   0.438  -0.824  -0.161   0.000   0.259   0.069   0.000
  0.649  -0.476  -0.162  -0.922   0.000   0.069   0.298   0.000
  0.000   0.000   0.000   0.000  -1.025   0.000   0.000   0.339


------------------------ aborting loop because EDIFF is reached ----------------------------------------


 


 total charge     
 
# of ion       s       p       d       tot
------------------------------------------
    1        1.082   1.376   0.000   2.458
    2        1.082   1.376   0.000   2.458
    3        1.083   1.372   0.000   2.455
    4        1.083   1.372   0.000   2.455
    5        1.084   1.371   0.000   2.455
    6        1.084   1.371   0.000   2.455
    7        1.084   1.371   0.000   2.455
    8        1.084   1.371   0.000   2.455
    9        1.083   1.372   0.000   2.455
   10        1.083   1.372   0.000   2.455
   11        1.082   1.376   0.000   2.458
   12        1.082   1.376   0.000   2.458
--------------------------------------------------
tot         12.998  16.474   0.000  29.471
 
    CHARGE:  cpu time    0.0370: real time    0.0370
    FORLOC:  cpu time    0.0013: real time    0.0013
    FORNL :  cpu time    0.1400: real time    0.1400
    STRESS:  cpu time    0.2461: real time    0.2464
    FORCOR:  cpu time    0.0134: real time    0.0135
    FORHAR:  cpu time    0.0041: real time    0.0041
    MIXING:  cpu time    0.0012: real time    0.0012
    OFIELD:  cpu time    0.0000: real time    0.0000

  DFT-D2 method for vdW energy calculation
  -------------------------------------------------------------------

  Parameters of vdW forcefield:
         C6(Jnm^6/mol)     R0(A)
   -----------------------------
   P        7.840          1.705

  IVDW =  10
  VDW_RADIUS =    50.000 A
  VDW_S6 =     0.750
  VDW_SR =     1.000
  VDW_D =    20.000
  LVDW_EWALD = F

  Number of pair interactions contributing to vdW energy:   88382
  Edisp (eV):   -2.17394
    FORVDW:  cpu time    0.0524: real time    0.0534

  FORCE on cell =-STRESS in cart. coord.  units (eV):
  Direction    XX          YY          ZZ          XY          YZ          ZX
  --------------------------------------------------------------------------------------
  Alpha Z    30.28014    30.28014    30.28014
  Ewald   16591.01473-18044.25022 16426.47569    -0.00000     0.00000     0.00000
  Hartree 16897.97161-16770.75116 16840.76742     0.00000    -0.00000    -0.00000
  E(xc)    -201.41119  -202.67112  -201.61961     0.00000     0.00000     0.00000
  Local  -34440.61058 33820.41551-34239.87769    -0.00000     0.00000     0.00000
  n-local   679.58825   677.87641   674.76731     0.00000    -0.00000     1.88242
  augment  -126.39330  -130.43469  -128.86659    -0.00000    -0.00000    -0.00000
  Kinetic   569.41149   620.31430   600.30515     0.00000     0.00000     7.59847
  Fock        0.00000     0.00000     0.00000     0.00000     0.00000     0.00000
  vdW        -0.23282    -1.41063    -0.99576    -0.00000    -0.00000     0.00000
  -------------------------------------------------------------------------------------
  Total      -0.38165    -0.63146     1.23605     0.00000    -0.00000     0.00000
  in kB      -1.28244    -2.12188     4.15349     0.00000    -0.00000     0.00000
  external pressure =        0.25 kB  Pullay stress =        0.00 kB


 VOLUME and BASIS-vectors are now :
 -----------------------------------------------------------------------------
  energy-cutoff  :      400.00
  volume of cell :      476.80
      direct lattice vectors                 reciprocal lattice vectors
     3.342886000  0.000000000  0.000000000     0.299142717  0.000000000  0.000000000
     0.000000000 32.602409000  0.000000000     0.000000000  0.030672580  0.000000000
     0.000000000  0.000000000  4.374831000     0.000000000  0.000000000  0.228580258

  length of vectors
     3.342886000 32.602409000  4.374831000     0.299142717  0.030672580  0.228580258


 FORCES acting on ions
    electron-ion (+dipol)            ewald-force                    non-local-force                 convergence-correction
 -----------------------------------------------------------------------------------------------
   0.452E-15 0.823E+03 -.290E+02   0.114E-14 -.828E+03 0.342E+02   -.278E-16 0.577E+01 -.520E+01   0.931E-15 -.376E-03 -.594E-03
   0.113E-14 0.823E+03 0.290E+02   -.458E-14 -.828E+03 -.342E+02   0.278E-16 0.577E+01 0.520E+01   -.112E-14 -.376E-03 0.594E-03
   -.210E-14 0.459E+03 0.260E+02   0.181E-14 -.453E+03 -.313E+02   -.555E-16 -.546E+01 0.525E+01   0.237E-14 -.221E-02 0.736E-04
   0.505E-14 0.459E+03 -.260E+02   -.613E-14 -.453E+03 0.313E+02   0.278E-16 -.546E+01 -.525E+01   -.286E-14 -.221E-02 -.736E-04
   0.210E-14 0.183E+03 -.262E+02   0.754E-15 -.189E+03 0.314E+02   0.000E+00 0.540E+01 -.524E+01   -.157E-14 0.403E-02 -.136E-02
   0.250E-14 0.183E+03 0.262E+02   -.638E-14 -.189E+03 -.314E+02   -.278E-16 0.540E+01 0.524E+01   0.300E-14 0.403E-02 0.136E-02
   0.426E-14 -.183E+03 0.262E+02   0.197E-14 0.189E+03 -.314E+02   0.000E+00 -.540E+01 0.524E+01   -.312E-14 -.403E-02 0.136E-02
   0.237E-14 -.183E+03 -.262E+02   -.498E-14 0.189E+03 0.314E+02   0.278E-16 -.540E+01 -.524E+01   0.475E-14 -.403E-02 -.136E-02
   -.228E-14 -.459E+03 -.260E+02   0.911E-15 0.453E+03 0.313E+02   0.555E-16 0.546E+01 -.525E+01   0.495E-14 0.221E-02 -.736E-04
   0.173E-14 -.459E+03 0.260E+02   -.523E-14 0.453E+03 -.313E+02   -.278E-16 0.546E+01 0.525E+01   -.607E-15 0.221E-02 0.736E-04
   0.701E-15 -.823E+03 0.290E+02   0.158E-14 0.828E+03 -.342E+02   0.278E-16 -.577E+01 0.520E+01   0.458E-14 0.376E-03 0.594E-03
   0.424E-14 -.823E+03 -.290E+02   -.679E-14 0.828E+03 0.342E+02   -.278E-16 -.577E+01 -.520E+01   0.213E-15 0.376E-03 -.594E-03
 -----------------------------------------------------------------------------------------------
   0.201E-13 0.460E-11 0.423E-10   -.259E-13 0.000E+00 -.711E-14   0.000E+00 0.000E+00 -.178E-14   0.115E-13 -.258E-11 -.390E-13
 
 
 POSITION                                       TOTAL-FORCE (eV/Angst)
 -----------------------------------------------------------------------------------
      0.00000     10.00001      4.02014        -0.000000      0.059229     -0.058912
      1.67144     10.00001      2.54211         0.000000      0.059229      0.058912
      0.00000     12.14332      0.35469        -0.000000     -0.057131     -0.001054
      1.67144     12.14332      1.83272        -0.000000     -0.057131      0.001054
      1.67144     15.22953      4.02014        -0.000000      0.020145     -0.014509
      0.00000     15.22953      2.54211        -0.000000      0.020145      0.014509
      1.67144     17.37288      0.35469        -0.000000     -0.020145      0.014509
      0.00000     17.37288      1.83272        -0.000000     -0.020145     -0.014509
      0.00000     20.45909      4.02014        -0.000000      0.057131      0.001054
      1.67144     20.45909      2.54211        -0.000000      0.057131     -0.001054
      0.00000     22.60240      0.35469        -0.000000     -0.059229      0.058912
      1.67144     22.60240      1.83272        -0.000000     -0.059229     -0.058912
 -----------------------------------------------------------------------------------
    total drift:                                0.000000      0.000000      0.000000


--------------------------------------------------------------------------------------------------------



  FREE ENERGIE OF THE ION-ELECTRON SYSTEM (eV)
  ---------------------------------------------------
  free  energy   TOTEN  =       -66.54023617 eV

  energy  without entropy=      -66.54023614  energy(sigma->0) =      -66.54023616
 


--------------------------------------------------------------------------------------------------------


    POTLOK:  cpu time    0.0995: real time    0.0995


--------------------------------------------------------------------------------------------------------


 writing wavefunctions
     LOOP+:  cpu time   17.2385: real time   17.3095
    4ORBIT:  cpu time    0.0000: real time    0.0000
 


 total charge     
 
# of ion       s       p       d       tot
------------------------------------------
    1        1.082   1.376   0.000   2.458
    2        1.082   1.376   0.000   2.458
    3        1.083   1.372   0.000   2.455
    4        1.083   1.372   0.000   2.455
    5        1.084   1.371   0.000   2.455
    6        1.084   1.371   0.000   2.455
    7        1.084   1.371   0.000   2.455
    8        1.084   1.371   0.000   2.455
    9        1.083   1.372   0.000   2.455
   10        1.083   1.372   0.000   2.455
   11        1.082   1.376   0.000   2.458
   12        1.082   1.376   0.000   2.458
--------------------------------------------------
tot         12.998  16.474   0.000  29.471
 

 total amount of memory used by VASP MPI-rank0    36137. kBytes
=======================================================================

   base      :      30000. kBytes
   nonl-proj :       1361. kBytes
   fftplans  :        792. kBytes
   grid      :       1070. kBytes
   one-center:          6. kBytes
   wavefun   :       2908. kBytes
 
  
  
 General timing and accounting informations for this job:
 ========================================================
  
                  Total CPU time used (sec):       23.038
                            User time (sec):       20.849
                          System time (sec):        2.189
                         Elapsed time (sec):       23.452
  
                   Maximum memory used (kb):      107660.
                   Average memory used (kb):           0.
  
                          Minor page faults:        40082
                          Major page faults:            0
                 Voluntary context switches:         2372
