 vasp.5.4.4.18Apr17-6-g9f103f2a35 (build Jun 20 2017 18:00:50) complex          
  
 executed on             LinuxIFC date 2018.03.16  15:58:09
 running on   32 total cores
 distrk:  each k-point on   32 cores,    1 groups
 distr:  one band on NCORES_PER_BAND=   8 cores,    4 groups


--------------------------------------------------------------------------------------------------------


 INCAR:
 POTCAR:    PAW_PBE P 06Sep2000                   
 POTCAR:    PAW_PBE P 06Sep2000                   
   VRHFIN =P : s2p3                                                             
   LEXCH  = PE                                                                  
   EATOM  =   176.0430 eV,   12.9388 Ry                                         
                                                                                
   TITEL  = PAW_PBE P 06Sep2000                                                 
   LULTRA =        F    use ultrasoft PP ?                                      
   IUNSCR =        1    unscreen: 0-lin 1-nonlin 2-no                           
   RPACOR =    1.500    partial core radius                                     
   POMASS =   30.974; ZVAL   =    5.000    mass and valenz                      
   RCORE  =    1.900    outmost cutoff radius                                   
   RWIGS  =    2.330; RWIGS  =    1.233    wigner-seitz radius (au A)           
   ENMAX  =  255.040; ENMIN  =  191.280 eV                                      
   ICORE  =        2    local potential                                         
   LCOR   =        T    correct aug charges                                     
   LPAW   =        T    paw PP                                                  
   EAUG   =  342.924                                                            
   DEXC   =    0.000                                                            
   RMAX   =    1.935    core radius for proj-oper                               
   RAUG   =    1.300    factor for augmentation sphere                          
   RDEP   =    1.931    radius for radial grids                                 
   RDEPT  =    1.794    core radius for aug-charge                              
                                                                                
   Atomic configuration                                                         
    6 entries                                                                   
     n  l   j            E        occ.                                          
     1  0  0.50     -2084.0982   2.0000                                         
     2  0  0.50      -173.9859   2.0000                                         
     2  1  1.50      -124.4865   6.0000                                         
     3  0  0.50       -13.9692   2.0000                                         
     3  1  0.50        -5.5067   3.0000                                         
     3  2  1.50        -5.4423   0.0000                                         
   Description                                                                  
     l       E           TYP  RCUT    TYP  RCUT                                 
     0    -13.9691527     23  1.900                                             
     0    -11.7794650     23  1.900                                             
     1     -5.5066937     23  1.900                                             
     1     -0.2556953     23  1.900                                             
     2     -5.4423304     23  1.900                                             
  local pseudopotential read in
  partial core-charges read in
  partial kinetic energy density read in
  atomic valenz-charges read in
  non local Contribution for L=           0  read in
    real space projection operators read in
  non local Contribution for L=           0  read in
    real space projection operators read in
  non local Contribution for L=           1  read in
    real space projection operators read in
  non local Contribution for L=           1  read in
    real space projection operators read in
    PAW grid and wavefunctions read in
 
   number of l-projection  operators is LMAX  =           4
   number of lm-projection operators is LMMAX =           8
 
  PAW_PBE P 06Sep2000                   :
 energy of atom  1       EATOM= -176.0430
 kinetic energy error for atom=    0.0023 (will be added to EATOM!!)
 
 
 POSCAR: P12                                     
  positions in direct lattice
  No initial velocities read in
 exchange correlation table for  LEXCH =        8
   RHO(1)=    0.500       N(1)  =     2000
   RHO(2)=  100.500       N(2)  =     4000
 


--------------------------------------------------------------------------------------------------------


 ion  position               nearest neighbor table
   1  0.000  0.307  0.919-   2 2.23   2 2.23   3 2.26
   2  0.500  0.307  0.581-   1 2.23   1 2.23   4 2.26
   3  0.000  0.372  0.081-   4 2.23   4 2.23   1 2.26
   4  0.500  0.372  0.419-   3 2.23   3 2.23   2 2.26
   5  0.500  0.467  0.919-   6 2.23   6 2.23   7 2.26
   6  0.000  0.467  0.581-   5 2.23   5 2.23   8 2.26
   7  0.500  0.533  0.081-   8 2.23   8 2.23   5 2.26
   8  0.000  0.533  0.419-   7 2.23   7 2.23   6 2.26
   9  0.000  0.628  0.919-  10 2.23  10 2.23  11 2.26
  10  0.500  0.628  0.581-   9 2.23   9 2.23  12 2.26
  11  0.000  0.693  0.081-  12 2.23  12 2.23   9 2.26
  12  0.500  0.693  0.419-  11 2.23  11 2.23  10 2.26
 
  LATTYP: Found a simple orthorhombic cell.
 ALAT       =     3.3428860000
 B/A-ratio  =     1.3086988309
 C/A-ratio  =     9.7527732026
  
  Lattice vectors:
  
 A1 = (  -3.3428860000,   0.0000000000,   0.0000000000)
 A2 = (   0.0000000000,   0.0000000000,  -4.3748310000)
 A3 = (   0.0000000000, -32.6024090000,   0.0000000000)


Analysis of symmetry for initial positions (statically):
=====================================================================
 Subroutine PRICEL returns:
 Original cell was already a primitive cell.
 

 Routine SETGRP: Setting up the symmetry group for a 
 simple orthorhombic supercell.


 Subroutine GETGRP returns: Found  8 space group operations
 (whereof  4 operations were pure point group operations)
 out of a pool of  8 trial point group operations.


The static configuration has the point symmetry C_2h.
 The point group associated with its full space group is D_2h.


Analysis of symmetry for dynamics (positions and initial velocities):
=====================================================================
 Subroutine PRICEL returns:
 Original cell was already a primitive cell.
 

 Routine SETGRP: Setting up the symmetry group for a 
 simple orthorhombic supercell.


 Subroutine GETGRP returns: Found  8 space group operations
 (whereof  4 operations were pure point group operations)
 out of a pool of  8 trial point group operations.


The dynamic configuration has the point symmetry C_2h.
 The point group associated with its full space group is D_2h.


 Subroutine INISYM returns: Found  8 space group operations
 (whereof  4 operations are pure point group operations),
 and found     1 'primitive' translations

 
 
 KPOINTS: Automatic mesh                          

Automatic generation of k-mesh.
Space group operators:
 irot       det(A)        alpha          n_x          n_y          n_z        tau_x        tau_y        tau_z
    1     1.000000     0.000001     1.000000     0.000000     0.000000     0.000000     0.000000     0.000000
    2    -1.000000     0.000001     1.000000     0.000000     0.000000     0.000000     0.000000     0.000000
    3     1.000000   179.999999     1.000000     0.000000     0.000000     0.000000     0.000000     0.000000
    4    -1.000000   179.999999     1.000000     0.000000     0.000000     0.000000     0.000000     0.000000
    5     1.000000   179.999999     0.000000     1.000000     0.000000    -0.500000     0.000000    -0.500000
    6    -1.000000   179.999999     0.000000     1.000000     0.000000    -0.500000     0.000000    -0.500000
    7     1.000000   179.999999     0.000000     0.000000     1.000000    -0.500000     0.000000    -0.500000
    8    -1.000000   179.999999     0.000000     0.000000     1.000000    -0.500000     0.000000    -0.500000
 
 Subroutine IBZKPT returns following result:
 ===========================================
 
 Found      6 irreducible k-points:
 
 Following reciprocal coordinates:
            Coordinates               Weight
  0.000000  0.000000  0.000000      1.000000
  0.250000  0.000000  0.000000      2.000000
  0.500000  0.000000  0.000000      1.000000
  0.000000  0.000000  0.333333      2.000000
  0.250000  0.000000  0.333333      4.000000
  0.500000  0.000000  0.333333      2.000000
 
 Following cartesian coordinates:
            Coordinates               Weight
  0.000000  0.000000  0.000000      1.000000
  0.074786  0.000000  0.000000      2.000000
  0.149571  0.000000  0.000000      1.000000
  0.000000  0.000000  0.076193      2.000000
  0.074786  0.000000  0.076193      4.000000
  0.149571  0.000000  0.076193      2.000000
 


--------------------------------------------------------------------------------------------------------




 Dimension of arrays:
   k-points           NKPTS =      6   k-points in BZ     NKDIM =      6   number of bands    NBANDS=     40
   number of dos      NEDOS =   2000   number of ions     NIONS =     12
   non local maximal  LDIM  =      4   non local SUM 2l+1 LMDIM =      8
   total plane-waves  NPLWV =  61440
   max r-space proj   IRMAX =      1   max aug-charges    IRDMAX=   4120
   dimension x,y,z NGX =    16 NGY =  160 NGZ =   24
   dimension x,y,z NGXF=    32 NGYF=  320 NGZF=   48
   support grid    NGXF=    32 NGYF=  320 NGZF=   48
   ions per type =              12
   NGX,Y,Z   is equivalent  to a cutoff of   7.96,  8.16,  9.12 a.u.
   NGXF,Y,Z  is equivalent  to a cutoff of  15.91, 16.32, 18.24 a.u.

 SYSTEM =  Generic Input                           
 POSCAR =  P12                                     

 Startparameter for this run:
   NWRITE =      2    write-flag & timer
   PREC   = normal    normal or accurate (medium, high low for compatibility)
   ISTART =      0    job   : 0-new  1-cont  2-samecut
   ICHARG =      2    charge: 1-file 2-atom 10-const
   ISPIN  =      1    spin polarized calculation?
   LNONCOLLINEAR =      F non collinear calculations
   LSORBIT =      F    spin-orbit coupling
   INIWAV =      1    electr: 0-lowe 1-rand  2-diag
   LASPH  =      T    aspherical Exc in radial PAW
   METAGGA=      F    non-selfconsistent MetaGGA calc.

 Electronic Relaxation 1
   ENCUT  =  400.0 eV  29.40 Ry    5.42 a.u.   5.45 53.17  7.13*2*pi/ulx,y,z
   ENINI  =  400.0     initial cutoff
   ENAUG  =  342.9 eV  augmentation charge cutoff
   NELM   =    200;   NELMIN=  2; NELMDL=  0     # of ELM steps 
   EDIFF  = 0.1E-04   stopping-criterion for ELM
   LREAL  =      F    real-space projection
   NLSPLINE    = F    spline interpolate recip. space projectors
   LCOMPAT=      F    compatible to vasp.4.4
   GGA_COMPAT  = T    GGA compatible to vasp.4.4-vasp.4.6
   LMAXPAW     = -100 max onsite density
   LMAXMIX     =    2 max onsite mixed and CHGCAR
   VOSKOWN=      0    Vosko Wilk Nusair interpolation
   ROPT   =    0.00000
 Ionic relaxation
   EDIFFG = -.2E-01   stopping-criterion for IOM
   NSW    =      0    number of steps for IOM
   NBLOCK =      1;   KBLOCK =      1    inner block; outer block 
   IBRION =     -1    ionic relax: 0-MD 1-quasi-New 2-CG
   NFREE  =      1    steps in history (QN), initial steepest desc. (CG)
   ISIF   =      3    stress and relaxation
   IWAVPR =     11    prediction:  0-non 1-charg 2-wave 3-comb
   ISYM   =      2    0-nonsym 1-usesym 2-fastsym
   LCORR  =      T    Harris-Foulkes like correction to forces

   POTIM  = 0.5000    time-step for ionic-motion
   TEIN   =    0.0    initial temperature
   TEBEG  =    0.0;   TEEND  =   0.0 temperature during run
   SMASS  =  -3.00    Nose mass-parameter (am)
   estimated Nose-frequenzy (Omega)   =  0.10E-29 period in steps =****** mass=  -0.255E-27a.u.
   SCALEE = 1.0000    scale energy and forces
   NPACO  =    256;   APACO  = 16.0  distance and # of slots for P.C.
   PSTRESS=    0.0 pullay stress

  Mass of Ions in am
   POMASS =  30.97
  Ionic Valenz
   ZVAL   =   5.00
  Atomic Wigner-Seitz radii
   RWIGS  =  -1.00
  virtual crystal weights 
   VCA    =   1.00
   NELECT =      60.0000    total number of electrons
   NUPDOWN=      -1.0000    fix difference up-down

 DOS related values:
   EMIN   =  10.00;   EMAX   =-10.00  energy-range for DOS
   EFERMI =   0.00
   ISMEAR =     0;   SIGMA  =   0.01  broadening in eV -4-tet -1-fermi 0-gaus

 Electronic relaxation 2 (details)
   IALGO  =     38    algorithm
   LDIAG  =      T    sub-space diagonalisation (order eigenvalues)
   LSUBROT=      F    optimize rotation matrix (better conditioning)
   TURBO    =      0    0=normal 1=particle mesh
   IRESTART =      0    0=no restart 2=restart with 2 vectors
   NREBOOT  =      0    no. of reboots
   NMIN     =      0    reboot dimension
   EREF     =   0.00    reference energy to select bands
   IMIX   =      4    mixing-type and parameters
     AMIX     =   0.40;   BMIX     =  1.00
     AMIX_MAG =   1.60;   BMIX_MAG =  1.00
     AMIN     =   0.10
     WC   =   100.;   INIMIX=   1;  MIXPRE=   1;  MAXMIX= -45

 Intra band minimization:
   WEIMIN = 0.0000     energy-eigenvalue tresh-hold
   EBREAK =  0.63E-07  absolut break condition
   DEPER  =   0.30     relativ break condition  

   TIME   =   0.40     timestep for ELM

  volume/ion in A,a.u.               =      39.73       268.13
  Fermi-wavevector in a.u.,A,eV,Ry     =   0.820379  1.550291  9.157011  0.673021
  Thomas-Fermi vector in A             =   1.931350
 
 Write flags
   LWAVE        =      T    write WAVECAR
   LDOWNSAMPLE  =      F    k-point downsampling of WAVECAR
   LCHARG       =      T    write CHGCAR
   LVTOT        =      F    write LOCPOT, total local potential
   LVHAR        =      T    write LOCPOT, Hartree potential only
   LELF         =      F    write electronic localiz. function (ELF)
   LORBIT       =     11    0 simple, 1 ext, 2 COOP (PROOUT), +10 PAW based schemes


 Dipole corrections
   LMONO  =      F    monopole corrections only (constant potential shift)
   LDIPOL =      F    correct potential (dipole corrections)
   IDIPOL =      0    1-x, 2-y, 3-z, 4-all directions 
   EPSILON=  1.0000000 bulk dielectric constant

 Core level calculations are selected ICORELEVEL =  1
 Exchange correlation treatment:
   GGA     =    PE    GGA type
   LEXCH   =     8    internal setting for exchange type
   VOSKOWN=      0    Vosko Wilk Nusair interpolation
   LHFCALC =     F    Hartree Fock is set to
   LHFONE  =     F    Hartree Fock one center treatment
   AEXX    =    0.0000 exact exchange contribution

 Linear response parameters
   LEPSILON=     F    determine dielectric tensor
   LRPA    =     F    only Hartree local field effects (RPA)
   LNABLA  =     F    use nabla operator in PAW spheres
   LVEL    =     F    velocity operator in full k-point grid
   LINTERFAST=   F  fast interpolation
   KINTER  =     0    interpolate to denser k-point grid
   CSHIFT  =0.1000    complex shift for real part using Kramers Kronig
   OMEGAMAX=  -1.0    maximum frequency
   DEG_THRESHOLD= 0.2000000E-02 threshold for treating states as degnerate
   RTIME   =   -0.100 relaxation time in fs
  (WPLASMAI=    0.000 imaginary part of plasma frequency in eV, 0.658/RTIME)
   DFIELD  = 0.0000000 0.0000000 0.0000000 field for delta impulse in time
 
 Orbital magnetization related:
   ORBITALMAG=     F  switch on orbital magnetization
   LCHIMAG   =     F  perturbation theory with respect to B field
   DQ        =  0.001000  dq finite difference perturbation B field
   LLRAUG    =     F  two centre corrections for induced B field



--------------------------------------------------------------------------------------------------------


 Static calculation
 charge density and potential will be updated during run
 non-spin polarized calculation
 Variant of blocked Davidson
 Davidson routine will perform the subspace rotation
 perform sub-space diagonalisation
    after iterative eigenvector-optimisation
 modified Broyden-mixing scheme, WC =      100.0
 initial mixing is a Kerker type mixing with AMIX =  0.4000 and BMIX =      1.0000
 Hartree-type preconditioning will be used
 using additional bands           10
 reciprocal scheme for non local part
 use partial core corrections
 calculate Harris-corrections to forces 
   (improved forces if not selfconsistent)
 use gradient corrections 
 use of overlap-Matrix (Vanderbilt PP)
 Gauss-broadening in eV      SIGMA  =   0.01


--------------------------------------------------------------------------------------------------------


  energy-cutoff  :      400.00
  volume of cell :      476.80
      direct lattice vectors                 reciprocal lattice vectors
     3.342886000  0.000000000  0.000000000     0.299142717  0.000000000  0.000000000
     0.000000000 32.602409000  0.000000000     0.000000000  0.030672580  0.000000000
     0.000000000  0.000000000  4.374831000     0.000000000  0.000000000  0.228580258

  length of vectors
     3.342886000 32.602409000  4.374831000     0.299142717  0.030672580  0.228580258


 
 k-points in units of 2pi/SCALE and weight: Automatic mesh                          
   0.00000000  0.00000000  0.00000000       0.083
   0.07478568  0.00000000  0.00000000       0.167
   0.14957136  0.00000000  0.00000000       0.083
   0.00000000  0.00000000  0.07619342       0.167
   0.07478568  0.00000000  0.07619342       0.333
   0.14957136  0.00000000  0.07619342       0.167
 
 k-points in reciprocal lattice and weights: Automatic mesh                          
   0.00000000  0.00000000  0.00000000       0.083
   0.25000000  0.00000000  0.00000000       0.167
   0.50000000  0.00000000  0.00000000       0.083
   0.00000000  0.00000000  0.33333333       0.167
   0.25000000  0.00000000  0.33333333       0.333
   0.50000000  0.00000000  0.33333333       0.167
 
 position of ions in fractional coordinates (direct lattice) 
   0.00000000  0.30672600  0.91892400
   0.50000000  0.30672600  0.58107600
   0.00000000  0.37246700  0.08107600
   0.50000000  0.37246700  0.41892400
   0.50000000  0.46712900  0.91892400
   0.00000000  0.46712900  0.58107600
   0.50000000  0.53287100  0.08107600
   0.00000000  0.53287100  0.41892400
   0.00000000  0.62753300  0.91892400
   0.50000000  0.62753300  0.58107600
   0.00000000  0.69327400  0.08107600
   0.50000000  0.69327400  0.41892400
 
 position of ions in cartesian coordinates  (Angst):
   0.00000000 10.00000650  4.02013720
   1.67144300 10.00000650  2.54210930
   0.00000000 12.14332147  0.35469380
   1.67144300 12.14332147  1.83272170
   1.67144300 15.22953071  4.02013720
   0.00000000 15.22953071  2.54210930
   1.67144300 17.37287829  0.35469380
   0.00000000 17.37287829  1.83272170
   0.00000000 20.45908753  4.02013720
   1.67144300 20.45908753  2.54210930
   0.00000000 22.60240250  0.35469380
   1.67144300 22.60240250  1.83272170
 


--------------------------------------------------------------------------------------------------------


 k-point  1 :   0.0000 0.0000 0.0000  plane waves:    8627
 k-point  2 :   0.2500 0.0000 0.0000  plane waves:    8667
 k-point  3 :   0.5000 0.0000 0.0000  plane waves:    8610
 k-point  4 :   0.0000 0.0000 0.3333  plane waves:    8736
 k-point  5 :   0.2500 0.0000 0.3333  plane waves:    8683
 k-point  6 :   0.5000 0.0000 0.3333  plane waves:    8612

 maximum and minimum number of plane-waves per node :      1101     1068

 maximum number of plane-waves:      8736
 maximum index in each direction: 
   IXMAX=    5   IYMAX=   53   IZMAX=    7
   IXMIN=   -5   IYMIN=  -53   IZMIN=   -7


 parallel 3D FFT for wavefunctions:
    minimum data exchange during FFTs selected (reduces bandwidth)
 parallel 3D FFT for charge:
    minimum data exchange during FFTs selected (reduces bandwidth)


 total amount of memory used by VASP MPI-rank0    33572. kBytes
=======================================================================

   base      :      30000. kBytes
   nonl-proj :        633. kBytes
   fftplans  :        792. kBytes
   grid      :       1070. kBytes
   one-center:          6. kBytes
   wavefun   :       1071. kBytes
 
     INWAV:  cpu time    0.0001: real time    0.0002
 Broyden mixing: mesh for mixing (old mesh)
   NGX = 11   NGY =107   NGZ = 15
  (NGX  = 32   NGY  =320   NGZ  = 48)
  gives a total of  17655 points

 initial charge density was supplied:
 charge density of overlapping atoms calculated
 number of electron      60.0000000 magnetization 
 keeping initial charge density in first step


--------------------------------------------------------------------------------------------------------


 Maximum index for augmentation-charges          313 (set IRDMAX)


--------------------------------------------------------------------------------------------------------


 First call to EWALD:  gamma=   0.227
 Maximum number of real-space cells 6x 1x 5
 Maximum number of reciprocal cells 1x10x 2

    FEWALD:  cpu time    0.0017: real time    0.0017


--------------------------------------- Iteration      1(   1)  ---------------------------------------


    POTLOK:  cpu time    0.0288: real time    0.0301
    SETDIJ:  cpu time    0.0644: real time    0.0644
     EDDAV:  cpu time    0.2624: real time    0.2633
       DOS:  cpu time    0.0004: real time    0.0004
    --------------------------------------------
      LOOP:  cpu time    0.3560: real time    0.3582

 eigenvalue-minimisations  :   480
 total energy-change (2. order) : 0.3367424E+03  (-0.1920187E+04)
 number of electron      60.0000000 magnetization 
 augmentation part       60.0000000 magnetization 

 Free energy of the ion-electron system (eV)
  ---------------------------------------------------
  alpha Z        PSCENC =        30.28014394
  Ewald energy   TEWEN  =     14973.24208224
  -Hartree energ DENC   =    -16928.93300519
  -exchange      EXHF   =         0.00000000
  -V(xc)+E(xc)   XCENC  =        40.33410248
  PAW double counting   =      1677.12035881    -1579.18296132
  entropy T*S    EENTRO =        -0.00149801
  eigenvalues    EBANDS =        11.39448980
  atomic energy  EATOM  =      2112.48864025
  Solvation  Ediel_sol  =         0.00000000
  ---------------------------------------------------
  free energy    TOTEN  =       336.74235299 eV

  energy without entropy =      336.74385100  energy(sigma->0) =      336.74310200


--------------------------------------------------------------------------------------------------------




--------------------------------------- Iteration      1(   2)  ---------------------------------------


     EDDAV:  cpu time    0.3273: real time    0.3278
       DOS:  cpu time    0.0003: real time    0.0003
    --------------------------------------------
      LOOP:  cpu time    0.3276: real time    0.3282

 eigenvalue-minimisations  :   664
 total energy-change (2. order) :-0.3624676E+03  (-0.3531893E+03)
 number of electron      60.0000000 magnetization 
 augmentation part       60.0000000 magnetization 

 Free energy of the ion-electron system (eV)
  ---------------------------------------------------
  alpha Z        PSCENC =        30.28014394
  Ewald energy   TEWEN  =     14973.24208224
  -Hartree energ DENC   =    -16928.93300519
  -exchange      EXHF   =         0.00000000
  -V(xc)+E(xc)   XCENC  =        40.33410248
  PAW double counting   =      1677.12035881    -1579.18296132
  entropy T*S    EENTRO =        -0.00000000
  eigenvalues    EBANDS =      -351.07455904
  atomic energy  EATOM  =      2112.48864025
  Solvation  Ediel_sol  =         0.00000000
  ---------------------------------------------------
  free energy    TOTEN  =       -25.72519784 eV

  energy without entropy =      -25.72519784  energy(sigma->0) =      -25.72519784


--------------------------------------------------------------------------------------------------------




--------------------------------------- Iteration      1(   3)  ---------------------------------------


     EDDAV:  cpu time    0.2853: real time    0.2872
       DOS:  cpu time    0.0003: real time    0.0003
    --------------------------------------------
      LOOP:  cpu time    0.2856: real time    0.2875

 eigenvalue-minimisations  :   568
 total energy-change (2. order) :-0.3726086E+02  (-0.3654233E+02)
 number of electron      60.0000000 magnetization 
 augmentation part       60.0000000 magnetization 

 Free energy of the ion-electron system (eV)
  ---------------------------------------------------
  alpha Z        PSCENC =        30.28014394
  Ewald energy   TEWEN  =     14973.24208224
  -Hartree energ DENC   =    -16928.93300519
  -exchange      EXHF   =         0.00000000
  -V(xc)+E(xc)   XCENC  =        40.33410248
  PAW double counting   =      1677.12035881    -1579.18296132
  entropy T*S    EENTRO =        -0.00000000
  eigenvalues    EBANDS =      -388.33541984
  atomic energy  EATOM  =      2112.48864025
  Solvation  Ediel_sol  =         0.00000000
  ---------------------------------------------------
  free energy    TOTEN  =       -62.98605864 eV

  energy without entropy =      -62.98605864  energy(sigma->0) =      -62.98605864


--------------------------------------------------------------------------------------------------------




--------------------------------------- Iteration      1(   4)  ---------------------------------------


     EDDAV:  cpu time    0.3261: real time    0.3267
       DOS:  cpu time    0.0003: real time    0.0003
    --------------------------------------------
      LOOP:  cpu time    0.3264: real time    0.3270

 eigenvalue-minimisations  :   680
 total energy-change (2. order) :-0.1485826E+01  (-0.1476940E+01)
 number of electron      60.0000000 magnetization 
 augmentation part       60.0000000 magnetization 

 Free energy of the ion-electron system (eV)
  ---------------------------------------------------
  alpha Z        PSCENC =        30.28014394
  Ewald energy   TEWEN  =     14973.24208224
  -Hartree energ DENC   =    -16928.93300519
  -exchange      EXHF   =         0.00000000
  -V(xc)+E(xc)   XCENC  =        40.33410248
  PAW double counting   =      1677.12035881    -1579.18296132
  entropy T*S    EENTRO =        -0.00000000
  eigenvalues    EBANDS =      -389.82124558
  atomic energy  EATOM  =      2112.48864025
  Solvation  Ediel_sol  =         0.00000000
  ---------------------------------------------------
  free energy    TOTEN  =       -64.47188437 eV

  energy without entropy =      -64.47188437  energy(sigma->0) =      -64.47188437


--------------------------------------------------------------------------------------------------------




--------------------------------------- Iteration      1(   5)  ---------------------------------------


     EDDAV:  cpu time    0.3439: real time    0.3462
       DOS:  cpu time    0.0003: real time    0.0003
    CHARGE:  cpu time    0.0188: real time    0.0188
    MIXING:  cpu time    0.0006: real time    0.0007
    --------------------------------------------
      LOOP:  cpu time    0.3636: real time    0.3660

 eigenvalue-minimisations  :   736
 total energy-change (2. order) :-0.4666970E-01  (-0.4661464E-01)
 number of electron      59.9999939 magnetization 
 augmentation part       -6.5108758 magnetization 

 Broyden mixing:
  rms(total) = 0.17486E+01    rms(broyden)= 0.17486E+01
  rms(prec ) = 0.17543E+01
  weight for this iteration     100.00

 Free energy of the ion-electron system (eV)
  ---------------------------------------------------
  alpha Z        PSCENC =        30.28014394
  Ewald energy   TEWEN  =     14973.24208224
  -Hartree energ DENC   =    -16928.93300519
  -exchange      EXHF   =         0.00000000
  -V(xc)+E(xc)   XCENC  =        40.33410248
  PAW double counting   =      1677.12035881    -1579.18296132
  entropy T*S    EENTRO =        -0.00000000
  eigenvalues    EBANDS =      -389.86791528
  atomic energy  EATOM  =      2112.48864025
  Solvation  Ediel_sol  =         0.00000000
  ---------------------------------------------------
  free energy    TOTEN  =       -64.51855407 eV

  energy without entropy =      -64.51855407  energy(sigma->0) =      -64.51855407


--------------------------------------------------------------------------------------------------------




--------------------------------------- Iteration      1(   6)  ---------------------------------------


    POTLOK:  cpu time    0.0126: real time    0.0144
    SETDIJ:  cpu time    0.0649: real time    0.0649
     EDDAV:  cpu time    0.2963: real time    0.2966
       DOS:  cpu time    0.0003: real time    0.0003
    CHARGE:  cpu time    0.0194: real time    0.0194
    MIXING:  cpu time    0.0007: real time    0.0007
    --------------------------------------------
      LOOP:  cpu time    0.3942: real time    0.3963

 eigenvalue-minimisations  :   608
 total energy-change (2. order) : 0.3349013E+00  (-0.2044114E-01)
 number of electron      59.9999940 magnetization 
 augmentation part       -6.4713067 magnetization 

 Broyden mixing:
  rms(total) = 0.10387E+01    rms(broyden)= 0.10387E+01
  rms(prec ) = 0.10420E+01
  weight for this iteration     100.00

 eigenvalues of (default mixing * dielectric matrix)
  average eigenvalue GAMMA=   2.4548
  2.4548

 Free energy of the ion-electron system (eV)
  ---------------------------------------------------
  alpha Z        PSCENC =        30.28014394
  Ewald energy   TEWEN  =     14973.24208224
  -Hartree energ DENC   =    -16941.28577209
  -exchange      EXHF   =         0.00000000
  -V(xc)+E(xc)   XCENC  =        41.39309050
  PAW double counting   =      3125.00531945    -3027.53967828
  entropy T*S    EENTRO =        -0.00000000
  eigenvalues    EBANDS =      -377.76747876
  atomic energy  EATOM  =      2112.48864025
  Solvation  Ediel_sol  =         0.00000000
  ---------------------------------------------------
  free energy    TOTEN  =       -64.18365276 eV

  energy without entropy =      -64.18365276  energy(sigma->0) =      -64.18365276


--------------------------------------------------------------------------------------------------------




--------------------------------------- Iteration      1(   7)  ---------------------------------------


    POTLOK:  cpu time    0.0126: real time    0.0145
    SETDIJ:  cpu time    0.0648: real time    0.0648
     EDDAV:  cpu time    0.3201: real time    0.3204
       DOS:  cpu time    0.0004: real time    0.0004
    CHARGE:  cpu time    0.0192: real time    0.0192
    MIXING:  cpu time    0.0008: real time    0.0008
    --------------------------------------------
      LOOP:  cpu time    0.4179: real time    0.4201

 eigenvalue-minimisations  :   624
 total energy-change (2. order) : 0.1534969E+00  (-0.3716944E-01)
 number of electron      59.9999940 magnetization 
 augmentation part       -6.4231367 magnetization 

 Broyden mixing:
  rms(total) = 0.44229E-01    rms(broyden)= 0.44228E-01
  rms(prec ) = 0.45547E-01
  weight for this iteration     100.00

 eigenvalues of (default mixing * dielectric matrix)
  average eigenvalue GAMMA=   2.0695
  1.6080  2.5309

 Free energy of the ion-electron system (eV)
  ---------------------------------------------------
  alpha Z        PSCENC =        30.28014394
  Ewald energy   TEWEN  =     14973.24208224
  -Hartree energ DENC   =    -16960.36880267
  -exchange      EXHF   =         0.00000000
  -V(xc)+E(xc)   XCENC  =        43.11793576
  PAW double counting   =      6232.49581770    -6135.60913637
  entropy T*S    EENTRO =        -0.00000152
  eigenvalues    EBANDS =      -359.67683519
  atomic energy  EATOM  =      2112.48864025
  Solvation  Ediel_sol  =         0.00000000
  ---------------------------------------------------
  free energy    TOTEN  =       -64.03015587 eV

  energy without entropy =      -64.03015435  energy(sigma->0) =      -64.03015511


--------------------------------------------------------------------------------------------------------




--------------------------------------- Iteration      1(   8)  ---------------------------------------


    POTLOK:  cpu time    0.0126: real time    0.0144
    SETDIJ:  cpu time    0.0647: real time    0.0649
     EDDAV:  cpu time    0.2966: real time    0.2970
       DOS:  cpu time    0.0003: real time    0.0003
    CHARGE:  cpu time    0.0185: real time    0.0185
    MIXING:  cpu time    0.0006: real time    0.0006
    --------------------------------------------
      LOOP:  cpu time    0.3935: real time    0.3957

 eigenvalue-minimisations  :   600
 total energy-change (2. order) : 0.2629214E-03  (-0.3187575E-02)
 number of electron      59.9999940 magnetization 
 augmentation part       -6.4335802 magnetization 

 Broyden mixing:
  rms(total) = 0.22936E-01    rms(broyden)= 0.22936E-01
  rms(prec ) = 0.23627E-01
  weight for this iteration     100.00

 eigenvalues of (default mixing * dielectric matrix)
  average eigenvalue GAMMA=   1.6497
  2.5287  1.2102  1.2102

 Free energy of the ion-electron system (eV)
  ---------------------------------------------------
  alpha Z        PSCENC =        30.28014394
  Ewald energy   TEWEN  =     14973.24208224
  -Hartree energ DENC   =    -16961.44931955
  -exchange      EXHF   =         0.00000000
  -V(xc)+E(xc)   XCENC  =        43.14673297
  PAW double counting   =      6335.61052737    -6238.64734574
  entropy T*S    EENTRO =        -0.00000031
  eigenvalues    EBANDS =      -358.70135411
  atomic energy  EATOM  =      2112.48864025
  Solvation  Ediel_sol  =         0.00000000
  ---------------------------------------------------
  free energy    TOTEN  =       -64.02989295 eV

  energy without entropy =      -64.02989264  energy(sigma->0) =      -64.02989279


--------------------------------------------------------------------------------------------------------




--------------------------------------- Iteration      1(   9)  ---------------------------------------


    POTLOK:  cpu time    0.0131: real time    0.0146
    SETDIJ:  cpu time    0.0648: real time    0.0648
     EDDAV:  cpu time    0.3325: real time    0.3328
       DOS:  cpu time    0.0003: real time    0.0003
    CHARGE:  cpu time    0.0196: real time    0.0196
    MIXING:  cpu time    0.0006: real time    0.0006
    --------------------------------------------
      LOOP:  cpu time    0.4310: real time    0.4328

 eigenvalue-minimisations  :   704
 total energy-change (2. order) : 0.3462528E-05  (-0.1905507E-03)
 number of electron      59.9999940 magnetization 
 augmentation part       -6.4338640 magnetization 

 Broyden mixing:
  rms(total) = 0.19263E-01    rms(broyden)= 0.19263E-01
  rms(prec ) = 0.19846E-01
  weight for this iteration     100.00

 eigenvalues of (default mixing * dielectric matrix)
  average eigenvalue GAMMA=   1.8241
  2.2705  2.2705  1.3777  1.3777

 Free energy of the ion-electron system (eV)
  ---------------------------------------------------
  alpha Z        PSCENC =        30.28014394
  Ewald energy   TEWEN  =     14973.24208224
  -Hartree energ DENC   =    -16962.33806299
  -exchange      EXHF   =         0.00000000
  -V(xc)+E(xc)   XCENC  =        43.15678670
  PAW double counting   =      6335.60940873    -6238.63948633
  entropy T*S    EENTRO =        -0.00000034
  eigenvalues    EBANDS =      -357.82940170
  atomic energy  EATOM  =      2112.48864025
  Solvation  Ediel_sol  =         0.00000000
  ---------------------------------------------------
  free energy    TOTEN  =       -64.02988949 eV

  energy without entropy =      -64.02988915  energy(sigma->0) =      -64.02988932


--------------------------------------------------------------------------------------------------------




--------------------------------------- Iteration      1(  10)  ---------------------------------------


    POTLOK:  cpu time    0.0127: real time    0.0147
    SETDIJ:  cpu time    0.0653: real time    0.0653
     EDDAV:  cpu time    0.3038: real time    0.3043
       DOS:  cpu time    0.0004: real time    0.0004
    CHARGE:  cpu time    0.0190: real time    0.0190
    MIXING:  cpu time    0.0007: real time    0.0007
    --------------------------------------------
      LOOP:  cpu time    0.4019: real time    0.4043

 eigenvalue-minimisations  :   600
 total energy-change (2. order) : 0.1961797E-03  (-0.3189137E-04)
 number of electron      59.9999940 magnetization 
 augmentation part       -6.4350869 magnetization 

 Broyden mixing:
  rms(total) = 0.12761E-01    rms(broyden)= 0.12761E-01
  rms(prec ) = 0.13315E-01
  weight for this iteration     100.00

 eigenvalues of (default mixing * dielectric matrix)
  average eigenvalue GAMMA=   1.7727
  2.5518  2.5518  1.0741  1.3428  1.3428

 Free energy of the ion-electron system (eV)
  ---------------------------------------------------
  alpha Z        PSCENC =        30.28014394
  Ewald energy   TEWEN  =     14973.24208224
  -Hartree energ DENC   =    -16963.23840511
  -exchange      EXHF   =         0.00000000
  -V(xc)+E(xc)   XCENC  =        43.14267716
  PAW double counting   =      6271.60197827    -6174.61018720
  entropy T*S    EENTRO =        -0.00000022
  eigenvalues    EBANDS =      -356.93662264
  atomic energy  EATOM  =      2112.48864025
  Solvation  Ediel_sol  =         0.00000000
  ---------------------------------------------------
  free energy    TOTEN  =       -64.02969331 eV

  energy without entropy =      -64.02969309  energy(sigma->0) =      -64.02969320


--------------------------------------------------------------------------------------------------------




--------------------------------------- Iteration      1(  11)  ---------------------------------------


    POTLOK:  cpu time    0.0136: real time    0.0151
    SETDIJ:  cpu time    0.0648: real time    0.0648
     EDDAV:  cpu time    0.3036: real time    0.3039
       DOS:  cpu time    0.0004: real time    0.0004
    CHARGE:  cpu time    0.0190: real time    0.0190
    MIXING:  cpu time    0.0007: real time    0.0007
    --------------------------------------------
      LOOP:  cpu time    0.4021: real time    0.4039

 eigenvalue-minimisations  :   624
 total energy-change (2. order) : 0.2357540E-03  (-0.4085091E-04)
 number of electron      59.9999940 magnetization 
 augmentation part       -6.4347919 magnetization 

 Broyden mixing:
  rms(total) = 0.47853E-02    rms(broyden)= 0.47853E-02
  rms(prec ) = 0.53065E-02
  weight for this iteration     100.00

 eigenvalues of (default mixing * dielectric matrix)
  average eigenvalue GAMMA=   1.7066
  2.5851  2.5851  1.3629  1.1450  1.2808  1.2808

 Free energy of the ion-electron system (eV)
  ---------------------------------------------------
  alpha Z        PSCENC =        30.28014394
  Ewald energy   TEWEN  =     14973.24208224
  -Hartree energ DENC   =    -16965.22020208
  -exchange      EXHF   =         0.00000000
  -V(xc)+E(xc)   XCENC  =        43.17153784
  PAW double counting   =      6280.63506095    -6183.63534504
  entropy T*S    EENTRO =        -0.00000026
  eigenvalues    EBANDS =      -354.99137538
  atomic energy  EATOM  =      2112.48864025
  Solvation  Ediel_sol  =         0.00000000
  ---------------------------------------------------
  free energy    TOTEN  =       -64.02945755 eV

  energy without entropy =      -64.02945729  energy(sigma->0) =      -64.02945742


--------------------------------------------------------------------------------------------------------




--------------------------------------- Iteration      1(  12)  ---------------------------------------


    POTLOK:  cpu time    0.0129: real time    0.0148
    SETDIJ:  cpu time    0.0648: real time    0.0648
     EDDAV:  cpu time    0.2853: real time    0.2858
       DOS:  cpu time    0.0004: real time    0.0004
    CHARGE:  cpu time    0.0187: real time    0.0187
    MIXING:  cpu time    0.0007: real time    0.0007
    --------------------------------------------
      LOOP:  cpu time    0.3828: real time    0.3853

 eigenvalue-minimisations  :   576
 total energy-change (2. order) :-0.7918944E-04  (-0.6703979E-05)
 number of electron      59.9999940 magnetization 
 augmentation part       -6.4346935 magnetization 

 Broyden mixing:
  rms(total) = 0.15482E-02    rms(broyden)= 0.15482E-02
  rms(prec ) = 0.23225E-02
  weight for this iteration     100.00

 eigenvalues of (default mixing * dielectric matrix)
  average eigenvalue GAMMA=   1.8117
  3.1005  2.6157  1.6573  1.6573  1.5927  1.1262  0.9319

 Free energy of the ion-electron system (eV)
  ---------------------------------------------------
  alpha Z        PSCENC =        30.28014394
  Ewald energy   TEWEN  =     14973.24208224
  -Hartree energ DENC   =    -16966.02078979
  -exchange      EXHF   =         0.00000000
  -V(xc)+E(xc)   XCENC  =        43.17822476
  PAW double counting   =      6287.70434096    -6190.70495919
  entropy T*S    EENTRO =        -0.00000029
  eigenvalues    EBANDS =      -354.19721962
  atomic energy  EATOM  =      2112.48864025
  Solvation  Ediel_sol  =         0.00000000
  ---------------------------------------------------
  free energy    TOTEN  =       -64.02953674 eV

  energy without entropy =      -64.02953646  energy(sigma->0) =      -64.02953660


--------------------------------------------------------------------------------------------------------




--------------------------------------- Iteration      1(  13)  ---------------------------------------


    POTLOK:  cpu time    0.0131: real time    0.0149
    SETDIJ:  cpu time    0.0650: real time    0.0650
     EDDAV:  cpu time    0.3067: real time    0.3102
       DOS:  cpu time    0.0003: real time    0.0003
    CHARGE:  cpu time    0.0182: real time    0.0182
    MIXING:  cpu time    0.0007: real time    0.0007
    --------------------------------------------
      LOOP:  cpu time    0.4041: real time    0.4094

 eigenvalue-minimisations  :   584
 total energy-change (2. order) :-0.2276025E-03  (-0.8548811E-05)
 number of electron      59.9999940 magnetization 
 augmentation part       -6.4344263 magnetization 

 Broyden mixing:
  rms(total) = 0.38618E-02    rms(broyden)= 0.38618E-02
  rms(prec ) = 0.39660E-02
  weight for this iteration     100.00

 eigenvalues of (default mixing * dielectric matrix)
  average eigenvalue GAMMA=   1.8251
  3.6782  2.3770  2.3770  1.7798  1.2083  1.2083  0.9862  0.9862

 Free energy of the ion-electron system (eV)
  ---------------------------------------------------
  alpha Z        PSCENC =        30.28014394
  Ewald energy   TEWEN  =     14973.24208224
  -Hartree energ DENC   =    -16967.35871545
  -exchange      EXHF   =         0.00000000
  -V(xc)+E(xc)   XCENC  =        43.18849171
  PAW double counting   =      6294.61076502    -6197.61122385
  entropy T*S    EENTRO =        -0.00000033
  eigenvalues    EBANDS =      -352.86994787
  atomic energy  EATOM  =      2112.48864025
  Solvation  Ediel_sol  =         0.00000000
  ---------------------------------------------------
  free energy    TOTEN  =       -64.02976435 eV

  energy without entropy =      -64.02976402  energy(sigma->0) =      -64.02976418


--------------------------------------------------------------------------------------------------------




--------------------------------------- Iteration      1(  14)  ---------------------------------------


    POTLOK:  cpu time    0.0130: real time    0.0151
    SETDIJ:  cpu time    0.0648: real time    0.0648
     EDDAV:  cpu time    0.2525: real time    0.2529
       DOS:  cpu time    0.0003: real time    0.0003
    CHARGE:  cpu time    0.0192: real time    0.0192
    MIXING:  cpu time    0.0008: real time    0.0008
    --------------------------------------------
      LOOP:  cpu time    0.3505: real time    0.3530

 eigenvalue-minimisations  :   472
 total energy-change (2. order) :-0.1365209E-03  (-0.1824219E-05)
 number of electron      59.9999940 magnetization 
 augmentation part       -6.4343674 magnetization 

 Broyden mixing:
  rms(total) = 0.30955E-02    rms(broyden)= 0.30955E-02
  rms(prec ) = 0.31592E-02
  weight for this iteration     100.00

 eigenvalues of (default mixing * dielectric matrix)
  average eigenvalue GAMMA=   1.6471
  3.5252  2.3954  2.3954  1.7521  1.2368  1.2368  1.0305  0.9554  0.2959

 Free energy of the ion-electron system (eV)
  ---------------------------------------------------
  alpha Z        PSCENC =        30.28014394
  Ewald energy   TEWEN  =     14973.24208224
  -Hartree energ DENC   =    -16967.80666571
  -exchange      EXHF   =         0.00000000
  -V(xc)+E(xc)   XCENC  =        43.18983565
  PAW double counting   =      6291.83846999    -6194.83891605
  entropy T*S    EENTRO =        -0.00000035
  eigenvalues    EBANDS =      -352.42349083
  atomic energy  EATOM  =      2112.48864025
  Solvation  Ediel_sol  =         0.00000000
  ---------------------------------------------------
  free energy    TOTEN  =       -64.02990087 eV

  energy without entropy =      -64.02990052  energy(sigma->0) =      -64.02990069


--------------------------------------------------------------------------------------------------------




--------------------------------------- Iteration      1(  15)  ---------------------------------------


    POTLOK:  cpu time    0.0143: real time    0.0145
    SETDIJ:  cpu time    0.0649: real time    0.0649
     EDDAV:  cpu time    0.2214: real time    0.2218
       DOS:  cpu time    0.0003: real time    0.0003
    CHARGE:  cpu time    0.0191: real time    0.0191
    MIXING:  cpu time    0.0009: real time    0.0009
    --------------------------------------------
      LOOP:  cpu time    0.3208: real time    0.3214

 eigenvalue-minimisations  :   384
 total energy-change (2. order) :-0.2741214E-04  (-0.1937358E-06)
 number of electron      59.9999940 magnetization 
 augmentation part       -6.4343730 magnetization 

 Broyden mixing:
  rms(total) = 0.22909E-02    rms(broyden)= 0.22909E-02
  rms(prec ) = 0.23696E-02
  weight for this iteration     100.00

 eigenvalues of (default mixing * dielectric matrix)
  average eigenvalue GAMMA=   2.0169
  5.5809  2.6981  2.2738  2.2738  1.5579  1.5579  1.1934  1.1934  0.9198  0.9198

 Free energy of the ion-electron system (eV)
  ---------------------------------------------------
  alpha Z        PSCENC =        30.28014394
  Ewald energy   TEWEN  =     14973.24208224
  -Hartree energ DENC   =    -16967.82256195
  -exchange      EXHF   =         0.00000000
  -V(xc)+E(xc)   XCENC  =        43.18950275
  PAW double counting   =      6290.66905722    -6193.66960881
  entropy T*S    EENTRO =        -0.00000035
  eigenvalues    EBANDS =      -352.40718355
  atomic energy  EATOM  =      2112.48864025
  Solvation  Ediel_sol  =         0.00000000
  ---------------------------------------------------
  free energy    TOTEN  =       -64.02992828 eV

  energy without entropy =      -64.02992793  energy(sigma->0) =      -64.02992810


--------------------------------------------------------------------------------------------------------




--------------------------------------- Iteration      1(  16)  ---------------------------------------


    POTLOK:  cpu time    0.0136: real time    0.0158
    SETDIJ:  cpu time    0.0649: real time    0.0649
     EDDAV:  cpu time    0.2490: real time    0.2493
       DOS:  cpu time    0.0004: real time    0.0004
    CHARGE:  cpu time    0.0197: real time    0.0197
    MIXING:  cpu time    0.0010: real time    0.0010
    --------------------------------------------
      LOOP:  cpu time    0.3485: real time    0.3510

 eigenvalue-minimisations  :   464
 total energy-change (2. order) :-0.2474903E-03  (-0.2310655E-05)
 number of electron      59.9999940 magnetization 
 augmentation part       -6.4343055 magnetization 

 Broyden mixing:
  rms(total) = 0.21489E-02    rms(broyden)= 0.21489E-02
  rms(prec ) = 0.21586E-02
  weight for this iteration     100.00

 eigenvalues of (default mixing * dielectric matrix)
  average eigenvalue GAMMA=   1.9886
  6.4578  2.7154  2.3865  2.0585  2.0585  1.3265  1.3265  1.0472  0.8841  0.8067
  0.8067

 Free energy of the ion-electron system (eV)
  ---------------------------------------------------
  alpha Z        PSCENC =        30.28014394
  Ewald energy   TEWEN  =     14973.24208224
  -Hartree energ DENC   =    -16968.49627156
  -exchange      EXHF   =         0.00000000
  -V(xc)+E(xc)   XCENC  =        43.18950551
  PAW double counting   =      6282.19036254    -6185.19032746
  entropy T*S    EENTRO =        -0.00000036
  eigenvalues    EBANDS =      -351.73431086
  atomic energy  EATOM  =      2112.48864025
  Solvation  Ediel_sol  =         0.00000000
  ---------------------------------------------------
  free energy    TOTEN  =       -64.03017577 eV

  energy without entropy =      -64.03017541  energy(sigma->0) =      -64.03017559


--------------------------------------------------------------------------------------------------------




--------------------------------------- Iteration      1(  17)  ---------------------------------------


    POTLOK:  cpu time    0.0143: real time    0.0145
    SETDIJ:  cpu time    0.0649: real time    0.0649
     EDDAV:  cpu time    0.2391: real time    0.2396
       DOS:  cpu time    0.0004: real time    0.0004
    CHARGE:  cpu time    0.0184: real time    0.0184
    MIXING:  cpu time    0.0009: real time    0.0009
    --------------------------------------------
      LOOP:  cpu time    0.3379: real time    0.3387

 eigenvalue-minimisations  :   440
 total energy-change (2. order) :-0.3599411E-04  (-0.2317180E-06)
 number of electron      59.9999940 magnetization 
 augmentation part       -6.4343045 magnetization 

 Broyden mixing:
  rms(total) = 0.17283E-02    rms(broyden)= 0.17283E-02
  rms(prec ) = 0.17342E-02
  weight for this iteration     100.00

 eigenvalues of (default mixing * dielectric matrix)
  average eigenvalue GAMMA=   1.8842
  6.5438  2.5843  2.3479  2.3479  1.7883  1.2429  1.2429  0.8588  0.8588  1.1093
  0.9057  0.7797

 Free energy of the ion-electron system (eV)
  ---------------------------------------------------
  alpha Z        PSCENC =        30.28014394
  Ewald energy   TEWEN  =     14973.24208224
  -Hartree energ DENC   =    -16968.60708222
  -exchange      EXHF   =         0.00000000
  -V(xc)+E(xc)   XCENC  =        43.18975569
  PAW double counting   =      6283.19175144    -6186.19185296
  entropy T*S    EENTRO =        -0.00000037
  eigenvalues    EBANDS =      -351.62364978
  atomic energy  EATOM  =      2112.48864025
  Solvation  Ediel_sol  =         0.00000000
  ---------------------------------------------------
  free energy    TOTEN  =       -64.03021176 eV

  energy without entropy =      -64.03021140  energy(sigma->0) =      -64.03021158


--------------------------------------------------------------------------------------------------------




--------------------------------------- Iteration      1(  18)  ---------------------------------------


    POTLOK:  cpu time    0.0131: real time    0.0149
    SETDIJ:  cpu time    0.0649: real time    0.0649
     EDDAV:  cpu time    0.2158: real time    0.2161
       DOS:  cpu time    0.0004: real time    0.0004
    CHARGE:  cpu time    0.0184: real time    0.0184
    MIXING:  cpu time    0.0011: real time    0.0011
    --------------------------------------------
      LOOP:  cpu time    0.3136: real time    0.3158

 eigenvalue-minimisations  :   368
 total energy-change (2. order) :-0.1018502E-04  (-0.4194460E-07)
 number of electron      59.9999940 magnetization 
 augmentation part       -6.4343130 magnetization 

 Broyden mixing:
  rms(total) = 0.11880E-02    rms(broyden)= 0.11880E-02
  rms(prec ) = 0.11939E-02
  weight for this iteration     100.00

 eigenvalues of (default mixing * dielectric matrix)
  average eigenvalue GAMMA=   2.0743
  7.0004  3.1981  2.8418  2.3059  2.0382  2.0382  1.5310  1.5310  1.0337  0.8819
  0.8819  0.8422  0.8422

 Free energy of the ion-electron system (eV)
  ---------------------------------------------------
  alpha Z        PSCENC =        30.28014394
  Ewald energy   TEWEN  =     14973.24208224
  -Hartree energ DENC   =    -16968.62425132
  -exchange      EXHF   =         0.00000000
  -V(xc)+E(xc)   XCENC  =        43.18987828
  PAW double counting   =      6284.14338656    -6187.14341496
  entropy T*S    EENTRO =        -0.00000037
  eigenvalues    EBANDS =      -351.60668657
  atomic energy  EATOM  =      2112.48864025
  Solvation  Ediel_sol  =         0.00000000
  ---------------------------------------------------
  free energy    TOTEN  =       -64.03022195 eV

  energy without entropy =      -64.03022158  energy(sigma->0) =      -64.03022177


--------------------------------------------------------------------------------------------------------




--------------------------------------- Iteration      1(  19)  ---------------------------------------


    POTLOK:  cpu time    0.0136: real time    0.0150
    SETDIJ:  cpu time    0.0649: real time    0.0649
     EDDAV:  cpu time    0.2263: real time    0.2267
       DOS:  cpu time    0.0004: real time    0.0004
    CHARGE:  cpu time    0.0191: real time    0.0191
    MIXING:  cpu time    0.0010: real time    0.0010
    --------------------------------------------
      LOOP:  cpu time    0.3254: real time    0.3272

 eigenvalue-minimisations  :   400
 total energy-change (2. order) :-0.4838644E-04  (-0.2029789E-06)
 number of electron      59.9999940 magnetization 
 augmentation part       -6.4343430 magnetization 

 Broyden mixing:
  rms(total) = 0.61199E-03    rms(broyden)= 0.61199E-03
  rms(prec ) = 0.61504E-03
  weight for this iteration     100.00

 eigenvalues of (default mixing * dielectric matrix)
  average eigenvalue GAMMA=   1.9905
  7.6623  3.4409  2.5578  1.8299  1.8299  1.6812  1.6812  1.4393  1.3662  0.9041
  0.9041  0.9066  0.9066  0.7571

 Free energy of the ion-electron system (eV)
  ---------------------------------------------------
  alpha Z        PSCENC =        30.28014394
  Ewald energy   TEWEN  =     14973.24208224
  -Hartree energ DENC   =    -16968.67647040
  -exchange      EXHF   =         0.00000000
  -V(xc)+E(xc)   XCENC  =        43.19000492
  PAW double counting   =      6287.18795871    -6190.18791655
  entropy T*S    EENTRO =        -0.00000036
  eigenvalues    EBANDS =      -351.55471308
  atomic energy  EATOM  =      2112.48864025
  Solvation  Ediel_sol  =         0.00000000
  ---------------------------------------------------
  free energy    TOTEN  =       -64.03027034 eV

  energy without entropy =      -64.03026998  energy(sigma->0) =      -64.03027016


--------------------------------------------------------------------------------------------------------




--------------------------------------- Iteration      1(  20)  ---------------------------------------


    POTLOK:  cpu time    0.0135: real time    0.0149
    SETDIJ:  cpu time    0.0649: real time    0.0649
     EDDAV:  cpu time    0.2090: real time    0.2095
       DOS:  cpu time    0.0003: real time    0.0003
    --------------------------------------------
      LOOP:  cpu time    0.3710: real time    0.3728

 eigenvalue-minimisations  :   352
 total energy-change (2. order) :-0.3989571E-05  (-0.5054253E-07)
 number of electron      59.9999940 magnetization 
 augmentation part       -6.4343430 magnetization 

 Free energy of the ion-electron system (eV)
  ---------------------------------------------------
  alpha Z        PSCENC =        30.28014394
  Ewald energy   TEWEN  =     14973.24208224
  -Hartree energ DENC   =    -16968.68731589
  -exchange      EXHF   =         0.00000000
  -V(xc)+E(xc)   XCENC  =        43.18999207
  PAW double counting   =      6286.88999601    -6189.89003119
  entropy T*S    EENTRO =        -0.00000036
  eigenvalues    EBANDS =      -351.54378138
  atomic energy  EATOM  =      2112.48864025
  Solvation  Ediel_sol  =         0.00000000
  ---------------------------------------------------
  free energy    TOTEN  =       -64.03027433 eV

  energy without entropy =      -64.03027396  energy(sigma->0) =      -64.03027414


--------------------------------------------------------------------------------------------------------




 the core state eigenenergies are
   1-  1s  -2078.3675  2s   -168.4022  2p   -118.8874
   2-  1s  -2078.3675  2s   -168.4022  2p   -118.8874
   3-  1s  -2078.4282  2s   -168.4571  2p   -118.9428
   4-  1s  -2078.4282  2s   -168.4571  2p   -118.9428
   5-  1s  -2078.4594  2s   -168.4884  2p   -118.9742
   6-  1s  -2078.4594  2s   -168.4884  2p   -118.9742
   7-  1s  -2078.4594  2s   -168.4884  2p   -118.9742
   8-  1s  -2078.4594  2s   -168.4884  2p   -118.9742
   9-  1s  -2078.4282  2s   -168.4571  2p   -118.9428
  10-  1s  -2078.4282  2s   -168.4571  2p   -118.9428
  11-  1s  -2078.3675  2s   -168.4022  2p   -118.8874
  12-  1s  -2078.3675  2s   -168.4022  2p   -118.8874
 
 E-fermi :   0.9476     XC(G=0):  -5.1071     alpha+bet : -5.5572


 k-point     1 :       0.0000    0.0000    0.0000
  band No.  band energies     occupation 
      1     -14.8470      2.00000
      2     -14.7260      2.00000
      3     -14.6575      2.00000
      4     -12.3671      2.00000
      5     -12.1215      2.00000
      6     -11.9416      2.00000
      7      -8.5951      2.00000
      8      -8.5096      2.00000
      9      -8.4797      2.00000
     10      -5.9176      2.00000
     11      -5.5391      2.00000
     12      -5.1205      2.00000
     13      -4.4977      2.00000
     14      -4.4950      2.00000
     15      -4.1769      2.00000
     16      -4.1347      2.00000
     17      -3.9877      2.00000
     18      -3.9110      2.00000
     19      -3.3864      2.00000
     20      -3.2852      2.00000
     21      -3.2354      2.00000
     22      -1.8721      2.00000
     23      -1.7289      2.00000
     24      -1.6160      2.00000
     25      -1.5819      2.00000
     26      -1.4969      2.00000
     27      -1.0991      2.00000
     28      -0.2407      2.00000
     29       0.3637      2.00000
     30       0.9195      1.99993
     31       0.9756      0.00007
     32       1.5029      0.00000
     33       1.5260      0.00000
     34       1.7031      0.00000
     35       1.7083      0.00000
     36       1.8644      0.00000
     37       2.7333      0.00000
     38       2.9035      0.00000
     39       2.9743      0.00000
     40       3.7080      0.00000

 k-point     2 :       0.2500    0.0000    0.0000
  band No.  band energies     occupation 
      1     -14.1228      2.00000
      2     -14.0046      2.00000
      3     -13.9391      2.00000
      4     -11.6114      2.00000
      5     -11.3690      2.00000
      6     -11.1917      2.00000
      7      -9.4194      2.00000
      8      -9.3590      2.00000
      9      -9.3553      2.00000
     10      -6.0115      2.00000
     11      -5.8652      2.00000
     12      -5.7720      2.00000
     13      -5.3222      2.00000
     14      -4.9650      2.00000
     15      -4.8557      2.00000
     16      -4.8075      2.00000
     17      -4.7894      2.00000
     18      -4.6058      2.00000
     19      -3.8674      2.00000
     20      -3.5483      2.00000
     21      -3.4107      2.00000
     22      -2.8421      2.00000
     23      -2.5626      2.00000
     24      -2.3050      2.00000
     25      -1.6696      2.00000
     26      -1.3864      2.00000
     27      -0.9351      2.00000
     28      -0.3676      2.00000
     29      -0.1818      2.00000
     30      -0.1268      2.00000
     31       1.3127      0.00000
     32       1.3942      0.00000
     33       1.7261      0.00000
     34       1.7488      0.00000
     35       2.3218      0.00000
     36       2.5067      0.00000
     37       3.2885      0.00000
     38       3.5892      0.00000
     39       3.6316      0.00000
     40       3.6661      0.00000

 k-point     3 :       0.5000    0.0000    0.0000
  band No.  band energies     occupation 
      1     -12.0591      2.00000
      2     -12.0591      2.00000
      3     -11.9533      2.00000
      4     -11.9533      2.00000
      5     -11.9011      2.00000
      6     -11.9011      2.00000
      7      -9.3931      2.00000
      8      -9.3931      2.00000
      9      -9.1646      2.00000
     10      -9.1646      2.00000
     11      -8.9983      2.00000
     12      -8.9983      2.00000
     13      -4.4612      2.00000
     14      -4.4612      2.00000
     15      -4.3264      2.00000
     16      -4.3264      2.00000
     17      -4.2810      2.00000
     18      -4.2810      2.00000
     19      -2.4595      2.00000
     20      -2.4595      2.00000
     21      -2.3848      2.00000
     22      -2.3848      2.00000
     23      -2.3840      2.00000
     24      -2.3840      2.00000
     25      -2.0027      2.00000
     26      -2.0027      2.00000
     27      -1.7322      2.00000
     28      -1.7322      2.00000
     29      -1.4803      2.00000
     30      -1.4803      2.00000
     31       1.6268      0.00000
     32       1.6268      0.00000
     33       1.6395      0.00000
     34       1.6395      0.00000
     35       1.7215      0.00000
     36       1.7215      0.00000
     37       2.1629      0.00000
     38       2.1629      0.00000
     39       2.2003      0.00000
     40       2.2004      0.00000

 k-point     4 :       0.0000    0.0000    0.3333
  band No.  band energies     occupation 
      1     -14.2322      2.00000
      2     -14.1254      2.00000
      3     -14.0721      2.00000
      4     -12.8207      2.00000
      5     -12.7412      2.00000
      6     -12.7308      2.00000
      7      -9.0254      2.00000
      8      -8.7950      2.00000
      9      -8.6004      2.00000
     10      -7.5459      2.00000
     11      -7.2309      2.00000
     12      -6.9803      2.00000
     13      -4.3531      2.00000
     14      -3.6839      2.00000
     15      -2.9173      2.00000
     16      -2.9080      2.00000
     17      -2.8228      2.00000
     18      -2.7901      2.00000
     19      -2.5342      2.00000
     20      -2.3177      2.00000
     21      -2.1072      2.00000
     22      -1.9863      2.00000
     23      -1.9122      2.00000
     24      -1.8990      2.00000
     25      -1.8148      2.00000
     26      -1.5675      2.00000
     27      -0.9222      2.00000
     28       0.1598      2.00000
     29       0.1892      2.00000
     30       0.2267      2.00000
     31       1.8871      0.00000
     32       1.9300      0.00000
     33       2.0255      0.00000
     34       2.0536      0.00000
     35       2.2168      0.00000
     36       2.2847      0.00000
     37       2.8511      0.00000
     38       3.2065      0.00000
     39       3.2533      0.00000
     40       3.3396      0.00000

 k-point     5 :       0.2500    0.0000    0.3333
  band No.  band energies     occupation 
      1     -13.5297      2.00000
      2     -13.4258      2.00000
      3     -13.3754      2.00000
      4     -12.1473      2.00000
      5     -12.0741      2.00000
      6     -12.0682      2.00000
      7      -9.0595      2.00000
      8      -8.8641      2.00000
      9      -8.7189      2.00000
     10      -7.3999      2.00000
     11      -7.2106      2.00000
     12      -7.0921      2.00000
     13      -5.6926      2.00000
     14      -5.5136      2.00000
     15      -5.3825      2.00000
     16      -4.7989      2.00000
     17      -4.6966      2.00000
     18      -4.6966      2.00000
     19      -3.6788      2.00000
     20      -3.2076      2.00000
     21      -2.7353      2.00000
     22      -2.3200      2.00000
     23      -1.9860      2.00000
     24      -1.8730      2.00000
     25      -1.6725      2.00000
     26      -1.4266      2.00000
     27      -1.2856      2.00000
     28      -1.0998      2.00000
     29      -0.8233      2.00000
     30      -0.5836      2.00000
     31       2.1614      0.00000
     32       2.2728      0.00000
     33       2.5090      0.00000
     34       2.9117      0.00000
     35       2.9300      0.00000
     36       3.4778      0.00000
     37       3.5496      0.00000
     38       3.7609      0.00000
     39       3.9544      0.00000
     40       4.1878      0.00000

 k-point     6 :       0.5000    0.0000    0.3333
  band No.  band energies     occupation 
      1     -11.7167      2.00000
      2     -11.7167      2.00000
      3     -11.6356      2.00000
      4     -11.6356      2.00000
      5     -11.6102      2.00000
      6     -11.6102      2.00000
      7      -9.4641      2.00000
      8      -9.4641      2.00000
      9      -9.3489      2.00000
     10      -9.3489      2.00000
     11      -9.2991      2.00000
     12      -9.2991      2.00000
     13      -5.1437      2.00000
     14      -5.1437      2.00000
     15      -4.9087      2.00000
     16      -4.9087      2.00000
     17      -4.7066      2.00000
     18      -4.7066      2.00000
     19      -4.1784      2.00000
     20      -4.1784      2.00000
     21      -3.8855      2.00000
     22      -3.8855      2.00000
     23      -3.6668      2.00000
     24      -3.6668      2.00000
     25      -1.4868      2.00000
     26      -1.4868      2.00000
     27      -1.1243      2.00000
     28      -1.1243      2.00000
     29      -0.9245      2.00000
     30      -0.9245      2.00000
     31       2.5580      0.00000
     32       2.5580      0.00000
     33       2.7519      0.00000
     34       2.7519      0.00000
     35       3.0066      0.00000
     36       3.0066      0.00000
     37       3.3759      0.00000
     38       3.3759      0.00000
     39       3.6010      0.00000
     40       3.6010      0.00000


--------------------------------------------------------------------------------------------------------


 soft charge-density along one line, spin component           1
         0         1         2         3         4         5         6         7         8         9
 total charge-density along one line
 
 pseudopotential strength for first ion, spin component:           1
 29.683  37.028   0.035  -0.034  -0.000   0.054  -0.053  -0.000
 37.028  46.195   0.043  -0.042   0.000   0.068  -0.066  -0.000
  0.035   0.043   6.553   0.006  -0.000  10.135   0.009  -0.000
 -0.034  -0.042   0.006   6.557  -0.000   0.009  10.141  -0.000
 -0.000   0.000  -0.000  -0.000   6.561  -0.000  -0.000  10.147
  0.054   0.068  10.135   0.009  -0.000  15.692   0.015  -0.000
 -0.053  -0.066   0.009  10.141  -0.000   0.015  15.701  -0.000
 -0.000  -0.000  -0.000  -0.000  10.147  -0.000  -0.000  15.710
 total augmentation occupancy for first ion, spin component:           1
  8.269  -4.688   1.852  -1.956   0.000  -0.590   0.649   0.000
 -4.688   3.383  -1.592   1.664  -0.000   0.436  -0.477   0.000
  1.852  -1.592   3.134   0.191   0.000  -0.826  -0.162   0.000
 -1.956   1.664   0.191   3.269   0.000  -0.161  -0.923   0.000
  0.000   0.000   0.000   0.000   3.409   0.000   0.000  -1.026
 -0.590   0.436  -0.826  -0.161   0.000   0.260   0.069   0.000
  0.649  -0.477  -0.162  -0.923   0.000   0.069   0.299   0.000
  0.000   0.000   0.000   0.000  -1.026   0.000   0.000   0.340


------------------------ aborting loop because EDIFF is reached ----------------------------------------


 


 total charge     
 
# of ion       s       p       d       tot
------------------------------------------
    1        1.079   1.381   0.000   2.459
    2        1.079   1.381   0.000   2.459
    3        1.081   1.376   0.000   2.456
    4        1.081   1.376   0.000   2.456
    5        1.081   1.375   0.000   2.457
    6        1.081   1.375   0.000   2.457
    7        1.081   1.375   0.000   2.457
    8        1.081   1.375   0.000   2.457
    9        1.081   1.376   0.000   2.456
   10        1.081   1.376   0.000   2.456
   11        1.079   1.381   0.000   2.459
   12        1.079   1.381   0.000   2.459
--------------------------------------------------
tot         12.964  16.526   0.000  29.490
 
    CHARGE:  cpu time    0.0188: real time    0.0188
    FORLOC:  cpu time    0.0012: real time    0.0012
    FORNL :  cpu time    0.0533: real time    0.0533
    STRESS:  cpu time    0.0879: real time    0.0879
    FORCOR:  cpu time    0.0131: real time    0.0131
    FORHAR:  cpu time    0.0040: real time    0.0040
    MIXING:  cpu time    0.0010: real time    0.0010
    OFIELD:  cpu time    0.0000: real time    0.0000

  DFT-D2 method for vdW energy calculation
  -------------------------------------------------------------------

  Parameters of vdW forcefield:
         C6(Jnm^6/mol)     R0(A)
   -----------------------------
   P        7.840          1.705

  IVDW =  10
  VDW_RADIUS =    50.000 A
  VDW_S6 =     0.750
  VDW_SR =     1.000
  VDW_D =    20.000
  LVDW_EWALD = F

  Number of pair interactions contributing to vdW energy:   88382
  Edisp (eV):   -2.17394
    FORVDW:  cpu time    0.0524: real time    0.0529

  FORCE on cell =-STRESS in cart. coord.  units (eV):
  Direction    XX          YY          ZZ          XY          YZ          ZX
  --------------------------------------------------------------------------------------
  Alpha Z    30.28014    30.28014    30.28014
  Ewald   16591.01473-18044.25022 16426.47569    -0.00000     0.00000     0.00000
  Hartree 16898.18763-16770.72752 16841.22875    -0.00000    -0.00000    -0.00000
  E(xc)    -201.56082  -202.73338  -201.67434    -0.00000     0.00000     0.00000
  Local  -34442.41347 33820.22549-34239.29599    -0.00000     0.00000     0.00000
  n-local   680.35742   677.24498   673.55528    -0.00000     0.00000     1.39982
  augment  -126.34561  -130.19546  -128.50283     0.00000    -0.00000    -0.00000
  Kinetic   572.42124   620.06397   599.88250     0.00000     0.00000     5.81457
  Fock        0.00000     0.00000     0.00000     0.00000     0.00000     0.00000
  vdW        -0.23282    -1.41063    -0.99576    -0.00000    -0.00000     0.00000
  -------------------------------------------------------------------------------------
  Total       1.70845    -1.50265     0.95344     0.00000     0.00000     0.00000
  in kB       5.74091    -5.04935     3.20386     0.00000     0.00000     0.00000
  external pressure =        1.30 kB  Pullay stress =        0.00 kB


 VOLUME and BASIS-vectors are now :
 -----------------------------------------------------------------------------
  energy-cutoff  :      400.00
  volume of cell :      476.80
      direct lattice vectors                 reciprocal lattice vectors
     3.342886000  0.000000000  0.000000000     0.299142717  0.000000000  0.000000000
     0.000000000 32.602409000  0.000000000     0.000000000  0.030672580  0.000000000
     0.000000000  0.000000000  4.374831000     0.000000000  0.000000000  0.228580258

  length of vectors
     3.342886000 32.602409000  4.374831000     0.299142717  0.030672580  0.228580258


 FORCES acting on ions
    electron-ion (+dipol)            ewald-force                    non-local-force                 convergence-correction
 -----------------------------------------------------------------------------------------------
   -.365E-15 0.823E+03 -.289E+02   0.114E-14 -.828E+03 0.342E+02   0.278E-16 0.582E+01 -.538E+01   -.545E-16 0.238E-02 0.155E-03
   0.171E-14 0.823E+03 0.289E+02   -.458E-14 -.828E+03 -.342E+02   -.555E-16 0.582E+01 0.538E+01   0.210E-14 0.238E-02 -.155E-03
   -.811E-15 0.459E+03 0.258E+02   0.181E-14 -.453E+03 -.313E+02   0.278E-16 -.552E+01 0.544E+01   -.704E-15 0.989E-03 0.529E-04
   0.125E-14 0.459E+03 -.258E+02   -.613E-14 -.453E+03 0.313E+02   0.278E-16 -.552E+01 -.544E+01   0.142E-15 0.989E-03 -.529E-04
   0.447E-14 0.183E+03 -.260E+02   0.754E-15 -.189E+03 0.314E+02   0.278E-16 0.544E+01 -.542E+01   0.207E-14 -.159E-02 0.432E-03
   -.160E-15 0.183E+03 0.260E+02   -.638E-14 -.189E+03 -.314E+02   -.278E-16 0.544E+01 0.542E+01   -.903E-15 -.159E-02 -.432E-03
   0.262E-14 -.183E+03 0.260E+02   0.197E-14 0.189E+03 -.314E+02   -.278E-16 -.544E+01 0.542E+01   0.386E-14 0.159E-02 -.432E-03
   0.670E-17 -.183E+03 -.260E+02   -.498E-14 0.189E+03 0.314E+02   0.278E-16 -.544E+01 -.542E+01   -.657E-14 0.159E-02 0.432E-03
   -.311E-15 -.459E+03 -.258E+02   0.911E-15 0.453E+03 0.313E+02   -.278E-16 0.552E+01 -.544E+01   -.424E-14 -.989E-03 -.529E-04
   0.627E-14 -.459E+03 0.258E+02   -.523E-14 0.453E+03 -.313E+02   -.278E-16 0.552E+01 0.544E+01   0.438E-14 -.989E-03 0.529E-04
   0.908E-15 -.823E+03 0.289E+02   0.158E-14 0.828E+03 -.342E+02   -.278E-16 -.582E+01 0.538E+01   -.271E-14 -.238E-02 -.155E-03
   0.588E-14 -.823E+03 -.289E+02   -.679E-14 0.828E+03 0.342E+02   0.555E-16 -.582E+01 -.538E+01   -.270E-15 -.238E-02 0.155E-03
 -----------------------------------------------------------------------------------------------
   0.215E-13 0.416E-11 0.425E-10   -.259E-13 0.000E+00 -.711E-14   0.000E+00 -.888E-15 0.888E-15   -.290E-14 -.256E-11 -.191E-13
 
 
 POSITION                                       TOTAL-FORCE (eV/Angst)
 -----------------------------------------------------------------------------------
      0.00000     10.00001      4.02014        -0.000000      0.122286     -0.069804
      1.67144     10.00001      2.54211         0.000000      0.122286      0.069804
      0.00000     12.14332      0.35469        -0.000000     -0.109447     -0.009400
      1.67144     12.14332      1.83272         0.000000     -0.109447      0.009400
      1.67144     15.22953      4.02014         0.000000      0.056136     -0.027522
      0.00000     15.22953      2.54211         0.000000      0.056136      0.027522
      1.67144     17.37288      0.35469         0.000000     -0.056136      0.027522
      0.00000     17.37288      1.83272         0.000000     -0.056136     -0.027522
      0.00000     20.45909      4.02014         0.000000      0.109447      0.009400
      1.67144     20.45909      2.54211        -0.000000      0.109447     -0.009400
      0.00000     22.60240      0.35469         0.000000     -0.122286      0.069804
      1.67144     22.60240      1.83272        -0.000000     -0.122286     -0.069804
 -----------------------------------------------------------------------------------
    total drift:                               -0.000000      0.000000      0.000000


--------------------------------------------------------------------------------------------------------



  FREE ENERGIE OF THE ION-ELECTRON SYSTEM (eV)
  ---------------------------------------------------
  free  energy   TOTEN  =       -66.20421385 eV

  energy  without entropy=      -66.20421349  energy(sigma->0) =      -66.20421367
 


--------------------------------------------------------------------------------------------------------


    POTLOK:  cpu time    0.1041: real time    0.1041


--------------------------------------------------------------------------------------------------------


 writing wavefunctions
     LOOP+:  cpu time    8.5138: real time    8.5595
    4ORBIT:  cpu time    0.0000: real time    0.0000
 


 total charge     
 
# of ion       s       p       d       tot
------------------------------------------
    1        1.079   1.381   0.000   2.459
    2        1.079   1.381   0.000   2.459
    3        1.081   1.376   0.000   2.456
    4        1.081   1.376   0.000   2.456
    5        1.081   1.375   0.000   2.457
    6        1.081   1.375   0.000   2.457
    7        1.081   1.375   0.000   2.457
    8        1.081   1.375   0.000   2.457
    9        1.081   1.376   0.000   2.456
   10        1.081   1.376   0.000   2.456
   11        1.079   1.381   0.000   2.459
   12        1.079   1.381   0.000   2.459
--------------------------------------------------
tot         12.964  16.526   0.000  29.490
 

 total amount of memory used by VASP MPI-rank0    33572. kBytes
=======================================================================

   base      :      30000. kBytes
   nonl-proj :        633. kBytes
   fftplans  :        792. kBytes
   grid      :       1070. kBytes
   one-center:          6. kBytes
   wavefun   :       1071. kBytes
 
  
  
 General timing and accounting informations for this job:
 ========================================================
  
                  Total CPU time used (sec):       13.570
                            User time (sec):       11.627
                          System time (sec):        1.943
                         Elapsed time (sec):       13.997
  
                   Maximum memory used (kb):      103284.
                   Average memory used (kb):           0.
  
                          Minor page faults:        31092
                          Major page faults:            0
                 Voluntary context switches:         1764
