  12  12   1   0
  0.3973299E+02  0.3342886E-09  0.3260241E-08  0.4374831E-09  0.5000000E-15
  1.000000000000000E-004
  CAR 
 Generic Input                           
      5.28488507    -15.81450064 2000      0.93639871      1.00000000
    -15.815  0.0000E+00  0.0000E+00
    -15.804  0.0000E+00  0.0000E+00
    -15.793  0.0000E+00  0.0000E+00
    -15.783  0.0000E+00  0.0000E+00
    -15.772  0.0000E+00  0.0000E+00
    -15.762  0.0000E+00  0.0000E+00
    -15.751  0.0000E+00  0.0000E+00
    -15.741  0.0000E+00  0.0000E+00
    -15.730  0.0000E+00  0.0000E+00
    -15.720  0.0000E+00  0.0000E+00
    -15.709  0.0000E+00  0.0000E+00
    -15.698  0.0000E+00  0.0000E+00
    -15.688  0.0000E+00  0.0000E+00
    -15.677  0.0000E+00  0.0000E+00
    -15.667  0.0000E+00  0.0000E+00
    -15.656  0.0000E+00  0.0000E+00
    -15.646  0.0000E+00  0.0000E+00
    -15.635  0.0000E+00  0.0000E+00
    -15.625  0.0000E+00  0.0000E+00
    -15.614  0.0000E+00  0.0000E+00
    -15.603  0.0000E+00  0.0000E+00
    -15.593  0.0000E+00  0.0000E+00
    -15.582  0.0000E+00  0.0000E+00
    -15.572  0.0000E+00  0.0000E+00
    -15.561  0.0000E+00  0.0000E+00
    -15.551  0.0000E+00  0.0000E+00
    -15.540  0.0000E+00  0.0000E+00
    -15.530  0.0000E+00  0.0000E+00
    -15.519  0.0000E+00  0.0000E+00
    -15.508  0.0000E+00  0.0000E+00
    -15.498  0.0000E+00  0.0000E+00
    -15.487  0.0000E+00  0.0000E+00
    -15.477  0.0000E+00  0.0000E+00
    -15.466  0.0000E+00  0.0000E+00
    -15.456  0.0000E+00  0.0000E+00
    -15.445  0.0000E+00  0.0000E+00
    -15.435  0.0000E+00  0.0000E+00
    -15.424  0.0000E+00  0.0000E+00
    -15.413  0.0000E+00  0.0000E+00
    -15.403  0.0000E+00  0.0000E+00
    -15.392  0.0000E+00  0.0000E+00
    -15.382  0.0000E+00  0.0000E+00
    -15.371  0.0000E+00  0.0000E+00
    -15.361  0.0000E+00  0.0000E+00
    -15.350  0.0000E+00  0.0000E+00
    -15.340  0.0000E+00  0.0000E+00
    -15.329  0.0000E+00  0.0000E+00
    -15.318  0.0000E+00  0.0000E+00
    -15.308  0.0000E+00  0.0000E+00
    -15.297  0.0000E+00  0.0000E+00
    -15.287  0.0000E+00  0.0000E+00
    -15.276  0.0000E+00  0.0000E+00
    -15.266  0.0000E+00  0.0000E+00
    -15.255  0.0000E+00  0.0000E+00
    -15.245  0.0000E+00  0.0000E+00
    -15.234  0.0000E+00  0.0000E+00
    -15.223  0.0000E+00  0.0000E+00
    -15.213  0.0000E+00  0.0000E+00
    -15.202  0.0000E+00  0.0000E+00
    -15.192  0.0000E+00  0.0000E+00
    -15.181  0.0000E+00  0.0000E+00
    -15.171  0.0000E+00  0.0000E+00
    -15.160  0.0000E+00  0.0000E+00
    -15.150  0.0000E+00  0.0000E+00
    -15.139  0.0000E+00  0.0000E+00
    -15.128  0.0000E+00  0.0000E+00
    -15.118  0.0000E+00  0.0000E+00
    -15.107  0.0000E+00  0.0000E+00
    -15.097  0.0000E+00  0.0000E+00
    -15.086  0.0000E+00  0.0000E+00
    -15.076  0.0000E+00  0.0000E+00
    -15.065  0.0000E+00  0.0000E+00
    -15.055  0.0000E+00  0.0000E+00
    -15.044  0.0000E+00  0.0000E+00
    -15.033  0.0000E+00  0.0000E+00
    -15.023  0.0000E+00  0.0000E+00
    -15.012  0.0000E+00  0.0000E+00
    -15.002  0.0000E+00  0.0000E+00
    -14.991  0.0000E+00  0.0000E+00
    -14.981  0.0000E+00  0.0000E+00
    -14.970  0.0000E+00  0.0000E+00
    -14.960  0.0000E+00  0.0000E+00
    -14.949  0.0000E+00  0.0000E+00
    -14.938  0.0000E+00  0.0000E+00
    -14.928  0.0000E+00  0.0000E+00
    -14.917  0.0000E+00  0.0000E+00
    -14.907  0.1223E-11  0.1291E-13
    -14.896  0.2545E-07  0.2686E-09
    -14.886  0.6046E-04  0.6384E-06
    -14.875  0.1701E-01  0.1802E-03
    -14.865  0.6062E+00  0.6578E-02
    -14.854  0.3044E+01  0.3871E-01
    -14.843  0.2365E+01  0.6367E-01
    -14.833  0.2792E+00  0.6662E-01
    -14.822  0.4500E-02  0.6667E-01
    -14.812  0.8985E-05  0.6667E-01
    -14.801  0.2098E-08  0.6667E-01
    -14.791  0.7047E-13  0.6667E-01
    -14.780  0.7020E-09  0.6667E-01
    -14.770  0.3852E-05  0.6667E-01
    -14.759  0.2460E-02  0.6669E-01
    -14.748  0.1930E+00  0.6873E-01
    -14.738  0.2041E+01  0.9027E-01
    -14.727  0.3248E+01  0.1246E+00
    -14.717  0.8033E+00  0.1330E+00
    -14.706  0.2837E-01  0.1333E+00
    -14.696  0.2355E-03  0.1333E+00
    -14.685  0.2513E-01  0.1336E+00
    -14.675  0.7522E+00  0.1415E+00
    -14.664  0.3204E+01  0.1754E+00
    -14.653  0.2123E+01  0.1978E+00
    -14.643  0.5170E+00  0.2032E+00
    -14.632  0.3695E+01  0.2422E+00
    -14.622  0.6675E+01  0.3127E+00
    -14.611  0.1879E+01  0.3325E+00
    -14.601  0.7616E-01  0.3333E+00
    -14.590  0.3976E-03  0.3333E+00
    -14.580  0.2482E-06  0.3333E+00
    -14.569  0.9903E-06  0.3333E+00
    -14.558  0.1108E-02  0.3333E+00
    -14.548  0.1498E+00  0.3349E+00
    -14.537  0.2654E+01  0.3629E+00
    -14.527  0.7221E+01  0.4392E+00
    -14.516  0.6670E+01  0.5096E+00
    -14.506  0.6759E+01  0.5809E+00
    -14.495  0.1743E+01  0.5993E+00
    -14.485  0.6594E-01  0.6000E+00
    -14.474  0.2960E-02  0.6000E+00
    -14.463  0.2613E+00  0.6028E+00
    -14.453  0.3445E+01  0.6391E+00
    -14.442  0.6762E+01  0.7105E+00
    -14.432  0.2117E+01  0.7329E+00
    -14.421  0.1551E+01  0.7492E+00
    -14.411  0.6368E+01  0.8164E+00
    -14.400  0.4311E+01  0.8619E+00
    -14.390  0.4408E+00  0.8666E+00
    -14.379  0.6114E-02  0.8667E+00
    -14.368  0.6566E-02  0.8667E+00
    -14.358  0.4606E+00  0.8716E+00
    -14.347  0.4388E+01  0.9179E+00
    -14.337  0.6321E+01  0.9846E+00
    -14.326  0.1562E+01  0.1001E+01
    -14.316  0.3769E+01  0.1041E+01
    -14.305  0.1333E+02  0.1182E+01
    -14.295  0.7432E+01  0.1260E+01
    -14.284  0.6199E+00  0.1267E+01
    -14.273  0.6918E-02  0.1267E+01
    -14.263  0.9439E-05  0.1267E+01
    -14.252  0.1496E-08  0.1267E+01
    -14.242  0.1607E-09  0.1267E+01
    -14.231  0.1640E-05  0.1267E+01
    -14.221  0.1929E-02  0.1267E+01
    -14.210  0.2736E+00  0.1270E+01
    -14.200  0.5070E+01  0.1323E+01
    -14.189  0.1374E+02  0.1468E+01
    -14.178  0.5813E+01  0.1529E+01
    -14.168  0.3625E+00  0.1533E+01
    -14.157  0.5465E-02  0.1533E+01
    -14.147  0.3228E+00  0.1537E+01
    -14.136  0.5498E+01  0.1595E+01
    -14.126  0.1376E+02  0.1740E+01
    -14.115  0.5374E+01  0.1797E+01
    -14.105  0.3080E+00  0.1800E+01
    -14.094  0.2314E-02  0.1800E+01
    -14.083  0.2100E-05  0.1800E+01
    -14.073  0.2199E-09  0.1800E+01
    -14.062  0.2805E-14  0.1800E+01
    -14.052  0.0000E+00  0.1800E+01
    -14.041  0.2104E-13  0.1800E+01
    -14.031  0.1070E-08  0.1800E+01
    -14.020  0.6239E-05  0.1800E+01
    -14.010  0.4229E-02  0.1800E+01
    -13.999  0.3514E+00  0.1804E+01
    -13.988  0.3923E+01  0.1845E+01
    -13.978  0.6575E+01  0.1915E+01
    -13.967  0.1714E+01  0.1933E+01
    -13.957  0.6402E-01  0.1933E+01
    -13.946  0.3069E-03  0.1933E+01
    -13.936  0.1755E-06  0.1933E+01
    -13.925  0.7527E-06  0.1933E+01
    -13.915  0.9056E-03  0.1933E+01
    -13.904  0.1313E+00  0.1935E+01
    -13.893  0.2484E+01  0.1961E+01
    -13.883  0.6865E+01  0.2033E+01
    -13.872  0.2962E+01  0.2065E+01
    -13.862  0.2434E+00  0.2067E+01
    -13.851  0.1580E+01  0.2084E+01
    -13.841  0.6472E+01  0.2152E+01
    -13.830  0.4126E+01  0.2196E+01
    -13.820  0.3960E+00  0.2200E+01
    -13.809  0.5128E-02  0.2200E+01
    -13.799  0.8159E-05  0.2200E+01
    -13.788  0.1512E-08  0.2200E+01
    -13.777  0.3085E-13  0.2200E+01
    -13.767  0.0000E+00  0.2200E+01
    -13.756  0.0000E+00  0.2200E+01
    -13.746  0.0000E+00  0.2200E+01
    -13.735  0.0000E+00  0.2200E+01
    -13.725  0.9354E-11  0.2200E+01
    -13.714  0.1711E-06  0.2200E+01
    -13.704  0.3579E-03  0.2200E+01
    -13.693  0.8892E-01  0.2201E+01
    -13.682  0.2813E+01  0.2231E+01
    -13.672  0.1263E+02  0.2364E+01
    -13.661  0.8794E+01  0.2457E+01
    -13.651  0.9260E+00  0.2467E+01
    -13.640  0.1322E-01  0.2467E+01
    -13.630  0.2328E-04  0.2467E+01
    -13.619  0.1180E-06  0.2467E+01
    -13.609  0.2762E-03  0.2467E+01
    -13.598  0.8192E-01  0.2468E+01
    -13.587  0.3153E+01  0.2501E+01
    -13.577  0.1742E+02  0.2685E+01
    -13.566  0.1515E+02  0.2845E+01
    -13.556  0.2072E+01  0.2866E+01
    -13.545  0.1321E+01  0.2880E+01
    -13.535  0.9957E+01  0.2986E+01
    -13.524  0.1179E+02  0.3110E+01
    -13.514  0.2155E+01  0.3133E+01
    -13.503  0.5522E-01  0.3133E+01
    -13.492  0.5321E-03  0.3133E+01
    -13.482  0.7040E-01  0.3134E+01
    -13.471  0.1803E+01  0.3153E+01
    -13.461  0.6632E+01  0.3223E+01
    -13.450  0.3797E+01  0.3263E+01
    -13.440  0.3257E+00  0.3267E+01
    -13.429  0.4121E-02  0.3267E+01
    -13.419  0.7340E-01  0.3267E+01
    -13.408  0.1843E+01  0.3287E+01
    -13.397  0.6656E+01  0.3357E+01
    -13.387  0.3901E+01  0.3398E+01
    -13.376  0.4156E+01  0.3442E+01
    -13.366  0.1340E+02  0.3584E+01
    -13.355  0.7275E+01  0.3660E+01
    -13.345  0.5904E+00  0.3667E+01
    -13.334  0.6402E-02  0.3667E+01
    -13.324  0.8480E-05  0.3667E+01
    -13.313  0.1304E-08  0.3667E+01
    -13.302  0.1216E-07  0.3667E+01
    -13.292  0.4781E-04  0.3667E+01
    -13.281  0.2203E-01  0.3667E+01
    -13.271  0.1261E+01  0.3680E+01
    -13.260  0.9896E+01  0.3785E+01
    -13.250  0.1184E+02  0.3910E+01
    -13.239  0.2187E+01  0.3933E+01
    -13.229  0.5796E-01  0.3933E+01
    -13.218  0.2092E+00  0.3936E+01
    -13.207  0.4429E+01  0.3982E+01
    -13.197  0.1362E+02  0.4126E+01
    -13.186  0.6535E+01  0.4195E+01
    -13.176  0.4653E+00  0.4200E+01
    -13.165  0.4394E-02  0.4200E+01
    -13.155  0.5047E-05  0.4200E+01
    -13.144  0.6712E-09  0.4200E+01
    -13.134  0.1996E-09  0.4200E+01
    -13.123  0.1678E-05  0.4200E+01
    -13.112  0.1632E-02  0.4200E+01
    -13.102  0.1923E+00  0.4202E+01
    -13.091  0.2990E+01  0.4234E+01
    -13.081  0.6861E+01  0.4306E+01
    -13.070  0.2458E+01  0.4332E+01
    -13.060  0.1286E+00  0.4333E+01
    -13.049  0.1622E-01  0.4333E+01
    -13.039  0.9827E+00  0.4344E+01
    -13.028  0.8861E+01  0.4437E+01
    -13.017  0.1249E+02  0.4569E+01
    -13.007  0.2819E+01  0.4599E+01
    -12.996  0.9342E-01  0.4600E+01
    -12.986  0.4084E-03  0.4600E+01
    -12.975  0.2187E-06  0.4600E+01
    -12.965  0.1373E-10  0.4600E+01
    -12.954  0.0000E+00  0.4600E+01
    -12.944  0.0000E+00  0.4600E+01
    -12.933  0.0000E+00  0.4600E+01
    -12.922  0.0000E+00  0.4600E+01
    -12.912  0.0000E+00  0.4600E+01
    -12.901  0.0000E+00  0.4600E+01
    -12.891  0.0000E+00  0.4600E+01
    -12.880  0.0000E+00  0.4600E+01
    -12.870  0.0000E+00  0.4600E+01
    -12.859  0.0000E+00  0.4600E+01
    -12.849  0.0000E+00  0.4600E+01
    -12.838  0.1711E-12  0.4600E+01
    -12.827  0.6952E-08  0.4600E+01
    -12.817  0.3279E-04  0.4600E+01
    -12.806  0.1870E-01  0.4600E+01
    -12.796  0.1388E+01  0.4615E+01
    -12.785  0.1493E+02  0.4772E+01
    -12.775  0.2612E+02  0.5048E+01
    -12.764  0.7711E+01  0.5130E+01
    -12.754  0.3566E+00  0.5133E+01
    -12.743  0.1279E+00  0.5135E+01
    -12.732  0.4549E+01  0.5183E+01
    -12.722  0.2373E+02  0.5433E+01
    -12.711  0.1957E+02  0.5640E+01
    -12.701  0.3430E+01  0.5676E+01
    -12.690  0.8805E+01  0.5769E+01
    -12.680  0.1265E+02  0.5902E+01
    -12.669  0.2900E+01  0.5933E+01
    -12.659  0.2467E+01  0.5959E+01
    -12.648  0.1211E+02  0.6087E+01
    -12.637  0.9546E+01  0.6188E+01
    -12.627  0.1144E+01  0.6200E+01
    -12.616  0.1873E-01  0.6200E+01
    -12.606  0.3802E-04  0.6200E+01
    -12.595  0.9027E-08  0.6200E+01
    -12.585  0.2412E-12  0.6200E+01
    -12.574  0.0000E+00  0.6200E+01
    -12.564  0.0000E+00  0.6200E+01
    -12.553  0.3428E-10  0.6200E+01
    -12.542  0.4180E-06  0.6200E+01
    -12.532  0.5861E-03  0.6200E+01
    -12.521  0.9857E-01  0.6201E+01
    -12.511  0.2149E+01  0.6224E+01
    -12.500  0.6790E+01  0.6295E+01
    -12.490  0.3346E+01  0.6331E+01
    -12.479  0.2451E+00  0.6333E+01
    -12.469  0.2385E-02  0.6333E+01
    -12.458  0.2825E-05  0.6333E+01
    -12.447  0.3876E-09  0.6333E+01
    -12.437  0.5610E-14  0.6333E+01
    -12.426  0.2406E-11  0.6333E+01
    -12.416  0.4375E-07  0.6333E+01
    -12.405  0.9102E-04  0.6333E+01
    -12.395  0.2249E-01  0.6334E+01
    -12.384  0.7078E+00  0.6341E+01
    -12.374  0.3162E+01  0.6374E+01
    -12.363  0.2191E+01  0.6398E+01
    -12.352  0.2979E+00  0.6401E+01
    -12.342  0.1778E+01  0.6419E+01
    -12.331  0.6615E+01  0.6489E+01
    -12.321  0.3836E+01  0.6530E+01
    -12.310  0.3335E+00  0.6533E+01
    -12.300  0.3889E-02  0.6533E+01
    -12.289  0.5553E-05  0.6533E+01
    -12.279  0.6885E-07  0.6533E+01
    -12.268  0.1504E-03  0.6533E+01
    -12.257  0.3949E-01  0.6534E+01
    -12.247  0.1318E+01  0.6548E+01
    -12.236  0.6218E+01  0.6613E+01
    -12.226  0.4546E+01  0.6661E+01
    -12.215  0.5038E+00  0.6667E+01
    -12.205  0.2356E-01  0.6667E+01
    -12.194  0.1039E+01  0.6678E+01
    -12.184  0.9201E+01  0.6775E+01
    -12.173  0.1236E+02  0.6905E+01
    -12.162  0.2572E+01  0.6933E+01
    -12.152  0.8086E-01  0.6933E+01
    -12.141  0.3066E+00  0.6937E+01
    -12.131  0.2448E+01  0.6962E+01
    -12.120  0.2981E+01  0.6994E+01
    -12.110  0.5606E+00  0.7000E+01
    -12.099  0.1488E-01  0.7000E+01
    -12.089  0.2462E-01  0.7000E+01
    -12.078  0.1008E+01  0.7011E+01
    -12.067  0.5784E+01  0.7072E+01
    -12.057  0.5183E+01  0.7127E+01
    -12.046  0.2496E+01  0.7153E+01
    -12.036  0.6725E+01  0.7224E+01
    -12.025  0.6441E+01  0.7292E+01
    -12.015  0.1277E+02  0.7427E+01
    -12.004  0.9077E+01  0.7523E+01
    -11.994  0.1002E+01  0.7533E+01
    -11.983  0.8633E-01  0.7534E+01
    -11.972  0.2937E+01  0.7565E+01
    -11.962  0.1737E+02  0.7748E+01
    -11.951  0.1786E+02  0.7937E+01
    -11.941  0.6025E+01  0.8001E+01
    -11.930  0.1238E+02  0.8131E+01
    -11.920  0.2894E+02  0.8437E+01
    -11.909  0.2390E+02  0.8689E+01
    -11.899  0.3191E+02  0.9026E+01
    -11.888  0.1527E+02  0.9187E+01
    -11.877  0.1224E+01  0.9200E+01
    -11.867  0.1343E-01  0.9200E+01
    -11.856  0.1742E-02  0.9200E+01
    -11.846  0.2541E+00  0.9203E+01
    -11.835  0.4887E+01  0.9254E+01
    -11.825  0.1372E+02  0.9399E+01
    -11.814  0.6043E+01  0.9463E+01
    -11.804  0.1709E+01  0.9481E+01
    -11.793  0.9596E+01  0.9582E+01
    -11.783  0.1801E+02  0.9772E+01
    -11.772  0.8258E+01  0.9859E+01
    -11.761  0.6787E+00  0.9867E+01
    -11.751  0.7839E-02  0.9867E+01
    -11.740  0.1119E-04  0.9867E+01
    -11.730  0.1861E-08  0.9867E+01
    -11.719  0.3366E-13  0.9867E+01
    -11.709  0.0000E+00  0.9867E+01
    -11.698  0.0000E+00  0.9867E+01
    -11.688  0.2020E-12  0.9867E+01
    -11.677  0.7768E-08  0.9867E+01
    -11.666  0.3386E-04  0.9867E+01
    -11.656  0.1726E-01  0.9867E+01
    -11.645  0.1089E+01  0.9878E+01
    -11.635  0.9409E+01  0.9978E+01
    -11.624  0.1359E+02  0.1012E+02
    -11.614  0.8721E+01  0.1021E+02
    -11.603  0.4575E+01  0.1026E+02
    -11.593  0.4938E+00  0.1027E+02
    -11.582  0.2300E+00  0.1027E+02
    -11.571  0.4657E+01  0.1032E+02
    -11.561  0.1644E+02  0.1049E+02
    -11.550  0.1896E+02  0.1069E+02
    -11.540  0.9292E+01  0.1079E+02
    -11.529  0.9454E+00  0.1080E+02
    -11.519  0.1359E-01  0.1080E+02
    -11.508  0.2419E-04  0.1080E+02
    -11.498  0.5025E-08  0.1080E+02
    -11.487  0.1178E-12  0.1080E+02
    -11.476  0.0000E+00  0.1080E+02
    -11.466  0.0000E+00  0.1080E+02
    -11.455  0.0000E+00  0.1080E+02
    -11.445  0.0000E+00  0.1080E+02
    -11.434  0.0000E+00  0.1080E+02
    -11.424  0.0000E+00  0.1080E+02
    -11.413  0.0000E+00  0.1080E+02
    -11.403  0.0000E+00  0.1080E+02
    -11.392  0.0000E+00  0.1080E+02
    -11.381  0.0000E+00  0.1080E+02
    -11.371  0.0000E+00  0.1080E+02
    -11.360  0.2791E-12  0.1080E+02
    -11.350  0.1008E-07  0.1080E+02
    -11.339  0.4140E-04  0.1080E+02
    -11.329  0.1990E-01  0.1080E+02
    -11.318  0.1186E+01  0.1081E+02
    -11.308  0.9676E+01  0.1091E+02
    -11.297  0.1201E+02  0.1104E+02
    -11.286  0.2305E+01  0.1107E+02
    -11.276  0.6219E-01  0.1107E+02
    -11.265  0.2122E-03  0.1107E+02
    -11.255  0.8563E-07  0.1107E+02
    -11.244  0.3944E-11  0.1107E+02
    -11.234  0.1402E-14  0.1107E+02
    -11.223  0.7606E-10  0.1107E+02
    -11.213  0.9077E-06  0.1107E+02
    -11.202  0.1246E-02  0.1107E+02
    -11.191  0.2053E+00  0.1107E+02
    -11.181  0.4388E+01  0.1112E+02
    -11.170  0.1361E+02  0.1126E+02
    -11.160  0.6584E+01  0.1133E+02
    -11.149  0.4730E+00  0.1133E+02
    -11.139  0.1737E-01  0.1133E+02
    -11.128  0.9106E+00  0.1134E+02
    -11.118  0.8735E+01  0.1144E+02
    -11.107  0.1267E+02  0.1157E+02
    -11.096  0.2849E+01  0.1160E+02
    -11.086  0.9101E-01  0.1160E+02
    -11.075  0.3709E-03  0.1160E+02
    -11.065  0.6861E-03  0.1160E+02
    -11.054  0.1094E+00  0.1160E+02
    -11.044  0.2266E+01  0.1163E+02
    -11.033  0.6824E+01  0.1170E+02
    -11.023  0.3206E+01  0.1173E+02
    -11.012  0.2234E+00  0.1173E+02
    -11.001  0.2061E-02  0.1173E+02
    -10.991  0.2311E-05  0.1173E+02
    -10.980  0.3001E-09  0.1173E+02
    -10.970  0.4207E-14  0.1173E+02
    -10.959  0.0000E+00  0.1173E+02
    -10.949  0.0000E+00  0.1173E+02
    -10.938  0.0000E+00  0.1173E+02
    -10.928  0.0000E+00  0.1173E+02
    -10.917  0.0000E+00  0.1173E+02
    -10.906  0.0000E+00  0.1173E+02
    -10.896  0.0000E+00  0.1173E+02
    -10.885  0.0000E+00  0.1173E+02
    -10.875  0.0000E+00  0.1173E+02
    -10.864  0.0000E+00  0.1173E+02
    -10.854  0.1332E-13  0.1173E+02
    -10.843  0.7291E-09  0.1173E+02
    -10.833  0.4626E-05  0.1173E+02
    -10.822  0.3410E-02  0.1173E+02
    -10.811  0.3071E+00  0.1174E+02
    -10.801  0.3701E+01  0.1178E+02
    -10.790  0.6671E+01  0.1185E+02
    -10.780  0.1873E+01  0.1187E+02
    -10.769  0.7565E-01  0.1187E+02
    -10.759  0.3937E-03  0.1187E+02
    -10.748  0.2448E-06  0.1187E+02
    -10.738  0.1748E-10  0.1187E+02
    -10.727  0.0000E+00  0.1187E+02
    -10.716  0.0000E+00  0.1187E+02
    -10.706  0.0000E+00  0.1187E+02
    -10.695  0.0000E+00  0.1187E+02
    -10.685  0.0000E+00  0.1187E+02
    -10.674  0.1370E-11  0.1187E+02
    -10.664  0.3193E-07  0.1187E+02
    -10.653  0.8494E-04  0.1187E+02
    -10.643  0.2668E-01  0.1187E+02
    -10.632  0.1057E+01  0.1188E+02
    -10.621  0.5863E+01  0.1194E+02
    -10.611  0.5018E+01  0.1199E+02
    -10.600  0.6554E+00  0.1200E+02
    -10.590  0.1176E-01  0.1200E+02
    -10.579  0.2622E-04  0.1200E+02
    -10.569  0.6857E-08  0.1200E+02
    -10.558  0.2034E-12  0.1200E+02
    -10.548  0.0000E+00  0.1200E+02
    -10.537  0.0000E+00  0.1200E+02
    -10.526  0.0000E+00  0.1200E+02
    -10.516  0.0000E+00  0.1200E+02
    -10.505  0.0000E+00  0.1200E+02
    -10.495  0.0000E+00  0.1200E+02
    -10.484  0.0000E+00  0.1200E+02
    -10.474  0.0000E+00  0.1200E+02
    -10.463  0.0000E+00  0.1200E+02
    -10.453  0.0000E+00  0.1200E+02
    -10.442  0.0000E+00  0.1200E+02
    -10.431  0.0000E+00  0.1200E+02
    -10.421  0.0000E+00  0.1200E+02
    -10.410  0.0000E+00  0.1200E+02
    -10.400  0.0000E+00  0.1200E+02
    -10.389  0.0000E+00  0.1200E+02
    -10.379  0.0000E+00  0.1200E+02
    -10.368  0.0000E+00  0.1200E+02
    -10.358  0.0000E+00  0.1200E+02
    -10.347  0.0000E+00  0.1200E+02
    -10.336  0.0000E+00  0.1200E+02
    -10.326  0.0000E+00  0.1200E+02
    -10.315  0.0000E+00  0.1200E+02
    -10.305  0.0000E+00  0.1200E+02
    -10.294  0.1235E-11  0.1200E+02
    -10.284  0.2939E-07  0.1200E+02
    -10.273  0.7975E-04  0.1200E+02
    -10.263  0.2554E-01  0.1200E+02
    -10.252  0.1031E+01  0.1201E+02
    -10.241  0.5821E+01  0.1207E+02
    -10.231  0.5068E+01  0.1213E+02
    -10.220  0.6738E+00  0.1213E+02
    -10.210  0.1232E-01  0.1213E+02
    -10.199  0.3035E-04  0.1213E+02
    -10.189  0.2072E-02  0.1213E+02
    -10.178  0.2241E+00  0.1214E+02
    -10.168  0.3212E+01  0.1217E+02
    -10.157  0.6871E+01  0.1224E+02
    -10.146  0.3728E+01  0.1228E+02
    -10.136  0.6483E+01  0.1235E+02
    -10.125  0.4300E+01  0.1240E+02
    -10.115  0.4380E+00  0.1240E+02
    -10.104  0.6040E-02  0.1240E+02
    -10.094  0.1026E-04  0.1240E+02
    -10.083  0.2031E-08  0.1240E+02
    -10.073  0.4488E-13  0.1240E+02
    -10.062  0.0000E+00  0.1240E+02
    -10.051  0.0000E+00  0.1240E+02
    -10.041  0.0000E+00  0.1240E+02
    -10.030  0.0000E+00  0.1240E+02
    -10.020  0.0000E+00  0.1240E+02
    -10.009  0.0000E+00  0.1240E+02
     -9.999  0.0000E+00  0.1240E+02
     -9.988  0.0000E+00  0.1240E+02
     -9.978  0.0000E+00  0.1240E+02
     -9.967  0.9817E-14  0.1240E+02
     -9.956  0.6221E-09  0.1240E+02
     -9.946  0.4755E-05  0.1240E+02
     -9.935  0.4208E-02  0.1240E+02
     -9.925  0.4526E+00  0.1240E+02
     -9.914  0.6452E+01  0.1247E+02
     -9.904  0.1364E+02  0.1262E+02
     -9.893  0.4499E+01  0.1266E+02
     -9.883  0.2156E+00  0.1267E+02
     -9.872  0.1342E-02  0.1267E+02
     -9.861  0.1003E-05  0.1267E+02
     -9.851  0.8633E-10  0.1267E+02
     -9.840  0.0000E+00  0.1267E+02
     -9.830  0.0000E+00  0.1267E+02
     -9.819  0.1543E-13  0.1267E+02
     -9.809  0.9498E-09  0.1267E+02
     -9.798  0.6621E-05  0.1267E+02
     -9.788  0.5352E-02  0.1267E+02
     -9.777  0.5274E+00  0.1267E+02
     -9.767  0.6918E+01  0.1275E+02
     -9.756  0.1352E+02  0.1289E+02
     -9.745  0.4116E+01  0.1293E+02
     -9.735  0.1813E+00  0.1293E+02
     -9.724  0.1033E-02  0.1293E+02
     -9.714  0.7052E-06  0.1293E+02
     -9.703  0.6725E-07  0.1293E+02
     -9.693  0.1765E-03  0.1293E+02
     -9.682  0.5480E-01  0.1293E+02
     -9.672  0.2146E+01  0.1296E+02
     -9.661  0.1178E+02  0.1308E+02
     -9.650  0.9975E+01  0.1319E+02
     -9.640  0.1289E+01  0.1320E+02
     -9.629  0.2285E-01  0.1320E+02
     -9.619  0.5036E-04  0.1320E+02
     -9.608  0.1301E-07  0.1320E+02
     -9.598  0.3815E-12  0.1320E+02
     -9.587  0.0000E+00  0.1320E+02
     -9.577  0.0000E+00  0.1320E+02
     -9.566  0.1402E-14  0.1320E+02
     -9.555  0.1046E-09  0.1320E+02
     -9.545  0.1168E-05  0.1320E+02
     -9.534  0.1502E-02  0.1320E+02
     -9.524  0.2322E+00  0.1320E+02
     -9.513  0.4671E+01  0.1325E+02
     -9.503  0.1368E+02  0.1340E+02
     -9.492  0.6252E+01  0.1346E+02
     -9.482  0.4230E+00  0.1347E+02
     -9.471  0.3785E-02  0.1347E+02
     -9.460  0.4663E-05  0.1347E+02
     -9.450  0.8939E-03  0.1347E+02
     -9.439  0.1807E+00  0.1347E+02
     -9.429  0.5098E+01  0.1352E+02
     -9.418  0.2353E+02  0.1377E+02
     -9.408  0.2501E+02  0.1403E+02
     -9.397  0.2272E+02  0.1427E+02
     -9.387  0.1095E+02  0.1439E+02
     -9.376  0.9172E+00  0.1440E+02
     -9.365  0.1064E-01  0.1440E+02
     -9.355  0.1547E-04  0.1440E+02
     -9.344  0.2659E-08  0.1440E+02
     -9.334  0.5329E-13  0.1440E+02
     -9.323  0.0000E+00  0.1440E+02
     -9.313  0.0000E+00  0.1440E+02
     -9.302  0.0000E+00  0.1440E+02
     -9.292  0.2805E-13  0.1440E+02
     -9.281  0.1544E-08  0.1440E+02
     -9.270  0.9675E-05  0.1440E+02
     -9.260  0.7042E-02  0.1440E+02
     -9.249  0.6268E+00  0.1441E+02
     -9.239  0.7468E+01  0.1449E+02
     -9.228  0.1332E+02  0.1463E+02
     -9.218  0.3697E+01  0.1467E+02
     -9.207  0.1476E+00  0.1467E+02
     -9.197  0.6999E-02  0.1467E+02
     -9.186  0.4469E+00  0.1467E+02
     -9.175  0.4336E+01  0.1472E+02
     -9.165  0.6604E+01  0.1479E+02
     -9.154  0.6301E+01  0.1485E+02
     -9.144  0.1377E+02  0.1500E+02
     -9.133  0.6752E+01  0.1507E+02
     -9.123  0.8262E+01  0.1516E+02
     -9.112  0.1314E+02  0.1530E+02
     -9.102  0.3414E+01  0.1533E+02
     -9.091  0.1270E+00  0.1533E+02
     -9.080  0.6065E-03  0.1533E+02
     -9.070  0.3454E-06  0.1533E+02
     -9.059  0.2629E-06  0.1533E+02
     -9.049  0.4944E-03  0.1533E+02
     -9.038  0.1107E+00  0.1533E+02
     -9.028  0.3191E+01  0.1537E+02
     -9.017  0.1388E+02  0.1551E+02
     -9.007  0.1387E+02  0.1566E+02
     -8.996  0.6315E+01  0.1573E+02
     -8.985  0.5624E+01  0.1579E+02
     -8.975  0.1373E+02  0.1593E+02
     -8.964  0.6043E+01  0.1600E+02
     -8.954  0.4036E+00  0.1600E+02
     -8.943  0.6055E+00  0.1601E+02
     -8.933  0.4951E+01  0.1606E+02
     -8.922  0.8589E+01  0.1615E+02
     -8.912  0.1613E+02  0.1632E+02
     -8.901  0.2167E+02  0.1655E+02
     -8.890  0.9931E+01  0.1665E+02
     -8.880  0.3829E+01  0.1669E+02
     -8.869  0.1232E+02  0.1682E+02
     -8.859  0.9375E+01  0.1692E+02
     -8.848  0.4097E+01  0.1697E+02
     -8.838  0.2087E+02  0.1719E+02
     -8.827  0.3173E+02  0.1752E+02
     -8.817  0.1789E+02  0.1771E+02
     -8.806  0.7871E+01  0.1779E+02
     -8.795  0.5917E+01  0.1786E+02
     -8.785  0.1041E+01  0.1787E+02
     -8.774  0.2595E-01  0.1787E+02
     -8.764  0.1250E-03  0.1787E+02
     -8.753  0.1675E-01  0.1787E+02
     -8.743  0.8077E+00  0.1788E+02
     -8.732  0.5394E+01  0.1793E+02
     -8.722  0.5525E+01  0.1799E+02
     -8.711  0.8693E+00  0.1800E+02
     -8.700  0.1900E-01  0.1800E+02
     -8.690  0.8242E-04  0.1800E+02
     -8.679  0.1304E-01  0.1800E+02
     -8.669  0.6969E+00  0.1801E+02
     -8.658  0.5129E+01  0.1806E+02
     -8.648  0.5769E+01  0.1812E+02
     -8.637  0.9999E+00  0.1813E+02
     -8.627  0.4261E-01  0.1813E+02
     -8.616  0.6335E+00  0.1814E+02
     -8.605  0.3079E+01  0.1817E+02
     -8.595  0.2321E+01  0.1820E+02
     -8.584  0.7058E+00  0.1820E+02
     -8.574  0.6380E+01  0.1827E+02
     -8.563  0.1366E+02  0.1842E+02
     -8.553  0.4564E+01  0.1846E+02
     -8.542  0.2461E+00  0.1847E+02
     -8.532  0.7417E+00  0.1847E+02
     -8.521  0.3194E+01  0.1851E+02
     -8.510  0.2179E+01  0.1853E+02
     -8.500  0.1184E+01  0.1854E+02
     -8.489  0.3355E+01  0.1858E+02
     -8.479  0.1808E+01  0.1860E+02
     -8.468  0.1456E+00  0.1860E+02
     -8.458  0.1567E-02  0.1860E+02
     -8.447  0.8165E-03  0.1860E+02
     -8.437  0.1224E+00  0.1860E+02
     -8.426  0.2399E+01  0.1863E+02
     -8.415  0.6852E+01  0.1870E+02
     -8.405  0.3055E+01  0.1873E+02
     -8.394  0.2013E+00  0.1873E+02
     -8.384  0.3796E-02  0.1873E+02
     -8.373  0.2840E+00  0.1874E+02
     -8.363  0.5164E+01  0.1879E+02
     -8.352  0.1375E+02  0.1894E+02
     -8.342  0.5713E+01  0.1900E+02
     -8.331  0.3496E+00  0.1900E+02
     -8.320  0.2815E-02  0.1900E+02
     -8.310  0.2742E-05  0.1900E+02
     -8.299  0.3085E-09  0.1900E+02
     -8.289  0.5610E-14  0.1900E+02
     -8.278  0.0000E+00  0.1900E+02
     -8.268  0.0000E+00  0.1900E+02
     -8.257  0.0000E+00  0.1900E+02
     -8.247  0.0000E+00  0.1900E+02
     -8.236  0.0000E+00  0.1900E+02
     -8.225  0.0000E+00  0.1900E+02
     -8.215  0.0000E+00  0.1900E+02
     -8.204  0.9617E-11  0.1900E+02
     -8.194  0.1749E-06  0.1900E+02
     -8.183  0.3640E-03  0.1900E+02
     -8.173  0.8993E-01  0.1900E+02
     -8.162  0.2831E+01  0.1903E+02
     -8.152  0.1265E+02  0.1916E+02
     -8.141  0.8765E+01  0.1926E+02
     -8.130  0.9184E+00  0.1927E+02
     -8.120  0.1305E-01  0.1927E+02
     -8.109  0.2285E-04  0.1927E+02
     -8.099  0.4670E-08  0.1927E+02
     -8.088  0.5464E-08  0.1927E+02
     -8.078  0.2580E-04  0.1927E+02
     -8.067  0.1423E-01  0.1927E+02
     -8.057  0.9683E+00  0.1928E+02
     -8.046  0.8951E+01  0.1937E+02
     -8.035  0.1254E+02  0.1950E+02
     -8.025  0.3400E+01  0.1954E+02
     -8.014  0.6432E+01  0.1961E+02
     -8.004  0.1593E+02  0.1978E+02
     -7.993  0.1275E+02  0.1991E+02
     -7.983  0.2121E+01  0.1993E+02
     -7.972  0.5259E-01  0.1993E+02
     -7.962  0.1660E-03  0.1993E+02
     -7.951  0.6194E-07  0.1993E+02
     -7.940  0.2637E-11  0.1993E+02
     -7.930  0.0000E+00  0.1993E+02
     -7.919  0.7012E-14  0.1993E+02
     -7.909  0.5301E-09  0.1993E+02
     -7.898  0.4194E-05  0.1993E+02
     -7.888  0.3840E-02  0.1993E+02
     -7.877  0.4269E+00  0.1994E+02
     -7.867  0.6279E+01  0.2000E+02
     -7.856  0.1368E+02  0.2015E+02
     -7.845  0.4647E+01  0.2020E+02
     -7.835  0.2299E+00  0.2020E+02
     -7.824  0.1479E-02  0.2020E+02
     -7.814  0.1144E-05  0.2020E+02
     -7.803  0.1019E-09  0.2020E+02
     -7.793  0.0000E+00  0.2020E+02
     -7.782  0.0000E+00  0.2020E+02
     -7.772  0.0000E+00  0.2020E+02
     -7.761  0.0000E+00  0.2020E+02
     -7.751  0.0000E+00  0.2020E+02
     -7.740  0.1786E-11  0.2020E+02
     -7.729  0.3953E-07  0.2020E+02
     -7.719  0.9987E-04  0.2020E+02
     -7.708  0.2983E-01  0.2020E+02
     -7.698  0.1126E+01  0.2021E+02
     -7.687  0.5969E+01  0.2028E+02
     -7.677  0.4888E+01  0.2033E+02
     -7.666  0.6096E+00  0.2033E+02
     -7.656  0.1041E-01  0.2033E+02
     -7.645  0.2208E-04  0.2033E+02
     -7.634  0.5484E-08  0.2033E+02
     -7.624  0.5540E-12  0.2033E+02
     -7.613  0.1350E-07  0.2033E+02
     -7.603  0.5182E-04  0.2033E+02
     -7.592  0.2331E-01  0.2033E+02
     -7.582  0.1304E+01  0.2035E+02
     -7.571  0.1002E+02  0.2045E+02
     -7.561  0.1174E+02  0.2058E+02
     -7.550  0.2123E+01  0.2060E+02
     -7.539  0.5378E-01  0.2060E+02
     -7.529  0.1718E-03  0.2060E+02
     -7.518  0.6484E-07  0.2060E+02
     -7.508  0.2791E-11  0.2060E+02
     -7.497  0.0000E+00  0.2060E+02
     -7.487  0.0000E+00  0.2060E+02
     -7.476  0.0000E+00  0.2060E+02
     -7.466  0.4157E-11  0.2060E+02
     -7.455  0.7831E-07  0.2060E+02
     -7.444  0.1710E-03  0.2060E+02
     -7.434  0.4640E-01  0.2060E+02
     -7.423  0.1813E+01  0.2062E+02
     -7.413  0.1267E+02  0.2075E+02
     -7.402  0.1811E+02  0.2094E+02
     -7.392  0.5030E+01  0.2100E+02
     -7.381  0.2274E+00  0.2100E+02
     -7.371  0.1406E-02  0.2100E+02
     -7.360  0.4460E-02  0.2100E+02
     -7.349  0.4696E+00  0.2101E+02
     -7.339  0.6563E+01  0.2107E+02
     -7.328  0.1361E+02  0.2122E+02
     -7.318  0.4406E+01  0.2126E+02
     -7.307  0.3710E+00  0.2127E+02
     -7.297  0.3910E+01  0.2131E+02
     -7.286  0.1343E+02  0.2145E+02
     -7.276  0.7185E+01  0.2153E+02
     -7.265  0.5743E+00  0.2153E+02
     -7.254  0.8895E-01  0.2153E+02
     -7.244  0.2730E+01  0.2156E+02
     -7.233  0.1355E+02  0.2171E+02
     -7.223  0.1481E+02  0.2186E+02
     -7.212  0.6023E+01  0.2193E+02
     -7.202  0.6805E+00  0.2193E+02
     -7.191  0.1211E-01  0.2193E+02
     -7.181  0.2727E-04  0.2193E+02
     -7.170  0.7212E-08  0.2193E+02
     -7.159  0.2160E-12  0.2193E+02
     -7.149  0.0000E+00  0.2193E+02
     -7.138  0.0000E+00  0.2193E+02
     -7.128  0.0000E+00  0.2193E+02
     -7.117  0.0000E+00  0.2193E+02
     -7.107  0.0000E+00  0.2193E+02