 vasp.5.4.4.18Apr17-6-g9f103f2a35 (build Jun 20 2017 18:00:50) complex          
  
 executed on             LinuxIFC date 2018.03.16  15:58:43
 running on   32 total cores
 distrk:  each k-point on   32 cores,    1 groups
 distr:  one band on NCORES_PER_BAND=   8 cores,    4 groups


--------------------------------------------------------------------------------------------------------


 INCAR:
 POTCAR:    PAW_PBE P 06Sep2000                   
 POTCAR:    PAW_PBE P 06Sep2000                   
   VRHFIN =P : s2p3                                                             
   LEXCH  = PE                                                                  
   EATOM  =   176.0430 eV,   12.9388 Ry                                         
                                                                                
   TITEL  = PAW_PBE P 06Sep2000                                                 
   LULTRA =        F    use ultrasoft PP ?                                      
   IUNSCR =        1    unscreen: 0-lin 1-nonlin 2-no                           
   RPACOR =    1.500    partial core radius                                     
   POMASS =   30.974; ZVAL   =    5.000    mass and valenz                      
   RCORE  =    1.900    outmost cutoff radius                                   
   RWIGS  =    2.330; RWIGS  =    1.233    wigner-seitz radius (au A)           
   ENMAX  =  255.040; ENMIN  =  191.280 eV                                      
   ICORE  =        2    local potential                                         
   LCOR   =        T    correct aug charges                                     
   LPAW   =        T    paw PP                                                  
   EAUG   =  342.924                                                            
   DEXC   =    0.000                                                            
   RMAX   =    1.935    core radius for proj-oper                               
   RAUG   =    1.300    factor for augmentation sphere                          
   RDEP   =    1.931    radius for radial grids                                 
   RDEPT  =    1.794    core radius for aug-charge                              
                                                                                
   Atomic configuration                                                         
    6 entries                                                                   
     n  l   j            E        occ.                                          
     1  0  0.50     -2084.0982   2.0000                                         
     2  0  0.50      -173.9859   2.0000                                         
     2  1  1.50      -124.4865   6.0000                                         
     3  0  0.50       -13.9692   2.0000                                         
     3  1  0.50        -5.5067   3.0000                                         
     3  2  1.50        -5.4423   0.0000                                         
   Description                                                                  
     l       E           TYP  RCUT    TYP  RCUT                                 
     0    -13.9691527     23  1.900                                             
     0    -11.7794650     23  1.900                                             
     1     -5.5066937     23  1.900                                             
     1     -0.2556953     23  1.900                                             
     2     -5.4423304     23  1.900                                             
  local pseudopotential read in
  partial core-charges read in
  partial kinetic energy density read in
  atomic valenz-charges read in
  non local Contribution for L=           0  read in
    real space projection operators read in
  non local Contribution for L=           0  read in
    real space projection operators read in
  non local Contribution for L=           1  read in
    real space projection operators read in
  non local Contribution for L=           1  read in
    real space projection operators read in
    PAW grid and wavefunctions read in
 
   number of l-projection  operators is LMAX  =           4
   number of lm-projection operators is LMMAX =           8
 
  PAW_PBE P 06Sep2000                   :
 energy of atom  1       EATOM= -176.0430
 kinetic energy error for atom=    0.0023 (will be added to EATOM!!)
 
 
 POSCAR: P12                                     
  positions in direct lattice
  No initial velocities read in
 exchange correlation table for  LEXCH =        8
   RHO(1)=    0.500       N(1)  =     2000
   RHO(2)=  100.500       N(2)  =     4000
 


--------------------------------------------------------------------------------------------------------


 ion  position               nearest neighbor table
   1  0.000  0.307  0.919-   2 2.23   2 2.23   3 2.26
   2  0.500  0.307  0.581-   1 2.23   1 2.23   4 2.26
   3  0.000  0.372  0.081-   4 2.23   4 2.23   1 2.26
   4  0.500  0.372  0.419-   3 2.23   3 2.23   2 2.26
   5  0.500  0.467  0.919-   6 2.23   6 2.23   7 2.26
   6  0.000  0.467  0.581-   5 2.23   5 2.23   8 2.26
   7  0.500  0.533  0.081-   8 2.23   8 2.23   5 2.26
   8  0.000  0.533  0.419-   7 2.23   7 2.23   6 2.26
   9  0.000  0.628  0.919-  10 2.23  10 2.23  11 2.26
  10  0.500  0.628  0.581-   9 2.23   9 2.23  12 2.26
  11  0.000  0.693  0.081-  12 2.23  12 2.23   9 2.26
  12  0.500  0.693  0.419-  11 2.23  11 2.23  10 2.26
 
  LATTYP: Found a simple orthorhombic cell.
 ALAT       =     3.3428860000
 B/A-ratio  =     1.3086988309
 C/A-ratio  =     9.7527732026
  
  Lattice vectors:
  
 A1 = (  -3.3428860000,   0.0000000000,   0.0000000000)
 A2 = (   0.0000000000,   0.0000000000,  -4.3748310000)
 A3 = (   0.0000000000, -32.6024090000,   0.0000000000)


Analysis of symmetry for initial positions (statically):
=====================================================================
 Subroutine PRICEL returns:
 Original cell was already a primitive cell.
 

 Routine SETGRP: Setting up the symmetry group for a 
 simple orthorhombic supercell.


 Subroutine GETGRP returns: Found  8 space group operations
 (whereof  4 operations were pure point group operations)
 out of a pool of  8 trial point group operations.


The static configuration has the point symmetry C_2h.
 The point group associated with its full space group is D_2h.


Analysis of symmetry for dynamics (positions and initial velocities):
=====================================================================
 Subroutine PRICEL returns:
 Original cell was already a primitive cell.
 

 Routine SETGRP: Setting up the symmetry group for a 
 simple orthorhombic supercell.


 Subroutine GETGRP returns: Found  8 space group operations
 (whereof  4 operations were pure point group operations)
 out of a pool of  8 trial point group operations.


The dynamic configuration has the point symmetry C_2h.
 The point group associated with its full space group is D_2h.


 Subroutine INISYM returns: Found  8 space group operations
 (whereof  4 operations are pure point group operations),
 and found     1 'primitive' translations

 
 
 KPOINTS: Automatic mesh                          

Automatic generation of k-mesh.
Space group operators:
 irot       det(A)        alpha          n_x          n_y          n_z        tau_x        tau_y        tau_z
    1     1.000000     0.000001     1.000000     0.000000     0.000000     0.000000     0.000000     0.000000
    2    -1.000000     0.000001     1.000000     0.000000     0.000000     0.000000     0.000000     0.000000
    3     1.000000   179.999999     1.000000     0.000000     0.000000     0.000000     0.000000     0.000000
    4    -1.000000   179.999999     1.000000     0.000000     0.000000     0.000000     0.000000     0.000000
    5     1.000000   179.999999     0.000000     1.000000     0.000000    -0.500000     0.000000    -0.500000
    6    -1.000000   179.999999     0.000000     1.000000     0.000000    -0.500000     0.000000    -0.500000
    7     1.000000   179.999999     0.000000     0.000000     1.000000    -0.500000     0.000000    -0.500000
    8    -1.000000   179.999999     0.000000     0.000000     1.000000    -0.500000     0.000000    -0.500000
 
 Subroutine IBZKPT returns following result:
 ===========================================
 
 Found     12 irreducible k-points:
 
 Following reciprocal coordinates:
            Coordinates               Weight
  0.000000  0.000000  0.000000      1.000000
  0.166667  0.000000  0.000000      2.000000
  0.333333  0.000000  0.000000      2.000000
  0.500000  0.000000  0.000000      1.000000
  0.000000  0.000000  0.200000      2.000000
  0.166667  0.000000  0.200000      4.000000
  0.333333  0.000000  0.200000      4.000000
  0.500000  0.000000  0.200000      2.000000
  0.000000  0.000000  0.400000      2.000000
  0.166667  0.000000  0.400000      4.000000
  0.333333  0.000000  0.400000      4.000000
  0.500000  0.000000  0.400000      2.000000
 
 Following cartesian coordinates:
            Coordinates               Weight
  0.000000  0.000000  0.000000      1.000000
  0.049857  0.000000  0.000000      2.000000
  0.099714  0.000000  0.000000      2.000000
  0.149571  0.000000  0.000000      1.000000
  0.000000  0.000000  0.045716      2.000000
  0.049857  0.000000  0.045716      4.000000
  0.099714  0.000000  0.045716      4.000000
  0.149571  0.000000  0.045716      2.000000
  0.000000  0.000000  0.091432      2.000000
  0.049857  0.000000  0.091432      4.000000
  0.099714  0.000000  0.091432      4.000000
  0.149571  0.000000  0.091432      2.000000
 


--------------------------------------------------------------------------------------------------------




 Dimension of arrays:
   k-points           NKPTS =     12   k-points in BZ     NKDIM =     12   number of bands    NBANDS=     40
   number of dos      NEDOS =   2000   number of ions     NIONS =     12
   non local maximal  LDIM  =      4   non local SUM 2l+1 LMDIM =      8
   total plane-waves  NPLWV =  61440
   max r-space proj   IRMAX =      1   max aug-charges    IRDMAX=   4120
   dimension x,y,z NGX =    16 NGY =  160 NGZ =   24
   dimension x,y,z NGXF=    32 NGYF=  320 NGZF=   48
   support grid    NGXF=    32 NGYF=  320 NGZF=   48
   ions per type =              12
   NGX,Y,Z   is equivalent  to a cutoff of   7.96,  8.16,  9.12 a.u.
   NGXF,Y,Z  is equivalent  to a cutoff of  15.91, 16.32, 18.24 a.u.

 SYSTEM =  Generic Input                           
 POSCAR =  P12                                     

 Startparameter for this run:
   NWRITE =      2    write-flag & timer
   PREC   = normal    normal or accurate (medium, high low for compatibility)
   ISTART =      0    job   : 0-new  1-cont  2-samecut
   ICHARG =      2    charge: 1-file 2-atom 10-const
   ISPIN  =      1    spin polarized calculation?
   LNONCOLLINEAR =      F non collinear calculations
   LSORBIT =      F    spin-orbit coupling
   INIWAV =      1    electr: 0-lowe 1-rand  2-diag
   LASPH  =      T    aspherical Exc in radial PAW
   METAGGA=      F    non-selfconsistent MetaGGA calc.

 Electronic Relaxation 1
   ENCUT  =  400.0 eV  29.40 Ry    5.42 a.u.   5.45 53.17  7.13*2*pi/ulx,y,z
   ENINI  =  400.0     initial cutoff
   ENAUG  =  342.9 eV  augmentation charge cutoff
   NELM   =    200;   NELMIN=  2; NELMDL=  0     # of ELM steps 
   EDIFF  = 0.1E-04   stopping-criterion for ELM
   LREAL  =      F    real-space projection
   NLSPLINE    = F    spline interpolate recip. space projectors
   LCOMPAT=      F    compatible to vasp.4.4
   GGA_COMPAT  = T    GGA compatible to vasp.4.4-vasp.4.6
   LMAXPAW     = -100 max onsite density
   LMAXMIX     =    2 max onsite mixed and CHGCAR
   VOSKOWN=      0    Vosko Wilk Nusair interpolation
   ROPT   =    0.00000
 Ionic relaxation
   EDIFFG = -.2E-01   stopping-criterion for IOM
   NSW    =      0    number of steps for IOM
   NBLOCK =      1;   KBLOCK =      1    inner block; outer block 
   IBRION =     -1    ionic relax: 0-MD 1-quasi-New 2-CG
   NFREE  =      1    steps in history (QN), initial steepest desc. (CG)
   ISIF   =      3    stress and relaxation
   IWAVPR =     11    prediction:  0-non 1-charg 2-wave 3-comb
   ISYM   =      2    0-nonsym 1-usesym 2-fastsym
   LCORR  =      T    Harris-Foulkes like correction to forces

   POTIM  = 0.5000    time-step for ionic-motion
   TEIN   =    0.0    initial temperature
   TEBEG  =    0.0;   TEEND  =   0.0 temperature during run
   SMASS  =  -3.00    Nose mass-parameter (am)
   estimated Nose-frequenzy (Omega)   =  0.10E-29 period in steps =****** mass=  -0.255E-27a.u.
   SCALEE = 1.0000    scale energy and forces
   NPACO  =    256;   APACO  = 16.0  distance and # of slots for P.C.
   PSTRESS=    0.0 pullay stress

  Mass of Ions in am
   POMASS =  30.97
  Ionic Valenz
   ZVAL   =   5.00
  Atomic Wigner-Seitz radii
   RWIGS  =  -1.00
  virtual crystal weights 
   VCA    =   1.00
   NELECT =      60.0000    total number of electrons
   NUPDOWN=      -1.0000    fix difference up-down

 DOS related values:
   EMIN   =  10.00;   EMAX   =-10.00  energy-range for DOS
   EFERMI =   0.00
   ISMEAR =     0;   SIGMA  =   0.01  broadening in eV -4-tet -1-fermi 0-gaus

 Electronic relaxation 2 (details)
   IALGO  =     38    algorithm
   LDIAG  =      T    sub-space diagonalisation (order eigenvalues)
   LSUBROT=      F    optimize rotation matrix (better conditioning)
   TURBO    =      0    0=normal 1=particle mesh
   IRESTART =      0    0=no restart 2=restart with 2 vectors
   NREBOOT  =      0    no. of reboots
   NMIN     =      0    reboot dimension
   EREF     =   0.00    reference energy to select bands
   IMIX   =      4    mixing-type and parameters
     AMIX     =   0.40;   BMIX     =  1.00
     AMIX_MAG =   1.60;   BMIX_MAG =  1.00
     AMIN     =   0.10
     WC   =   100.;   INIMIX=   1;  MIXPRE=   1;  MAXMIX= -45

 Intra band minimization:
   WEIMIN = 0.0000     energy-eigenvalue tresh-hold
   EBREAK =  0.63E-07  absolut break condition
   DEPER  =   0.30     relativ break condition  

   TIME   =   0.40     timestep for ELM

  volume/ion in A,a.u.               =      39.73       268.13
  Fermi-wavevector in a.u.,A,eV,Ry     =   0.820379  1.550291  9.157011  0.673021
  Thomas-Fermi vector in A             =   1.931350
 
 Write flags
   LWAVE        =      T    write WAVECAR
   LDOWNSAMPLE  =      F    k-point downsampling of WAVECAR
   LCHARG       =      T    write CHGCAR
   LVTOT        =      F    write LOCPOT, total local potential
   LVHAR        =      T    write LOCPOT, Hartree potential only
   LELF         =      F    write electronic localiz. function (ELF)
   LORBIT       =     11    0 simple, 1 ext, 2 COOP (PROOUT), +10 PAW based schemes


 Dipole corrections
   LMONO  =      F    monopole corrections only (constant potential shift)
   LDIPOL =      F    correct potential (dipole corrections)
   IDIPOL =      0    1-x, 2-y, 3-z, 4-all directions 
   EPSILON=  1.0000000 bulk dielectric constant

 Core level calculations are selected ICORELEVEL =  1
 Exchange correlation treatment:
   GGA     =    PE    GGA type
   LEXCH   =     8    internal setting for exchange type
   VOSKOWN=      0    Vosko Wilk Nusair interpolation
   LHFCALC =     F    Hartree Fock is set to
   LHFONE  =     F    Hartree Fock one center treatment
   AEXX    =    0.0000 exact exchange contribution

 Linear response parameters
   LEPSILON=     F    determine dielectric tensor
   LRPA    =     F    only Hartree local field effects (RPA)
   LNABLA  =     F    use nabla operator in PAW spheres
   LVEL    =     F    velocity operator in full k-point grid
   LINTERFAST=   F  fast interpolation
   KINTER  =     0    interpolate to denser k-point grid
   CSHIFT  =0.1000    complex shift for real part using Kramers Kronig
   OMEGAMAX=  -1.0    maximum frequency
   DEG_THRESHOLD= 0.2000000E-02 threshold for treating states as degnerate
   RTIME   =   -0.100 relaxation time in fs
  (WPLASMAI=    0.000 imaginary part of plasma frequency in eV, 0.658/RTIME)
   DFIELD  = 0.0000000 0.0000000 0.0000000 field for delta impulse in time
 
 Orbital magnetization related:
   ORBITALMAG=     F  switch on orbital magnetization
   LCHIMAG   =     F  perturbation theory with respect to B field
   DQ        =  0.001000  dq finite difference perturbation B field
   LLRAUG    =     F  two centre corrections for induced B field



--------------------------------------------------------------------------------------------------------


 Static calculation
 charge density and potential will be updated during run
 non-spin polarized calculation
 Variant of blocked Davidson
 Davidson routine will perform the subspace rotation
 perform sub-space diagonalisation
    after iterative eigenvector-optimisation
 modified Broyden-mixing scheme, WC =      100.0
 initial mixing is a Kerker type mixing with AMIX =  0.4000 and BMIX =      1.0000
 Hartree-type preconditioning will be used
 using additional bands           10
 reciprocal scheme for non local part
 use partial core corrections
 calculate Harris-corrections to forces 
   (improved forces if not selfconsistent)
 use gradient corrections 
 use of overlap-Matrix (Vanderbilt PP)
 Gauss-broadening in eV      SIGMA  =   0.01


--------------------------------------------------------------------------------------------------------


  energy-cutoff  :      400.00
  volume of cell :      476.80
      direct lattice vectors                 reciprocal lattice vectors
     3.342886000  0.000000000  0.000000000     0.299142717  0.000000000  0.000000000
     0.000000000 32.602409000  0.000000000     0.000000000  0.030672580  0.000000000
     0.000000000  0.000000000  4.374831000     0.000000000  0.000000000  0.228580258

  length of vectors
     3.342886000 32.602409000  4.374831000     0.299142717  0.030672580  0.228580258


 
 k-points in units of 2pi/SCALE and weight: Automatic mesh                          
   0.00000000  0.00000000  0.00000000       0.033
   0.04985712  0.00000000  0.00000000       0.067
   0.09971424  0.00000000  0.00000000       0.067
   0.14957136  0.00000000  0.00000000       0.033
   0.00000000  0.00000000  0.04571605       0.067
   0.04985712  0.00000000  0.04571605       0.133
   0.09971424  0.00000000  0.04571605       0.133
   0.14957136  0.00000000  0.04571605       0.067
   0.00000000  0.00000000  0.09143210       0.067
   0.04985712  0.00000000  0.09143210       0.133
   0.09971424  0.00000000  0.09143210       0.133
   0.14957136  0.00000000  0.09143210       0.067
 
 k-points in reciprocal lattice and weights: Automatic mesh                          
   0.00000000  0.00000000  0.00000000       0.033
   0.16666667  0.00000000  0.00000000       0.067
   0.33333333  0.00000000  0.00000000       0.067
   0.50000000  0.00000000  0.00000000       0.033
   0.00000000  0.00000000  0.20000000       0.067
   0.16666667  0.00000000  0.20000000       0.133
   0.33333333  0.00000000  0.20000000       0.133
   0.50000000  0.00000000  0.20000000       0.067
   0.00000000  0.00000000  0.40000000       0.067
   0.16666667  0.00000000  0.40000000       0.133
   0.33333333  0.00000000  0.40000000       0.133
   0.50000000  0.00000000  0.40000000       0.067
 
 position of ions in fractional coordinates (direct lattice) 
   0.00000000  0.30672600  0.91892400
   0.50000000  0.30672600  0.58107600
   0.00000000  0.37246700  0.08107600
   0.50000000  0.37246700  0.41892400
   0.50000000  0.46712900  0.91892400
   0.00000000  0.46712900  0.58107600
   0.50000000  0.53287100  0.08107600
   0.00000000  0.53287100  0.41892400
   0.00000000  0.62753300  0.91892400
   0.50000000  0.62753300  0.58107600
   0.00000000  0.69327400  0.08107600
   0.50000000  0.69327400  0.41892400
 
 position of ions in cartesian coordinates  (Angst):
   0.00000000 10.00000650  4.02013720
   1.67144300 10.00000650  2.54210930
   0.00000000 12.14332147  0.35469380
   1.67144300 12.14332147  1.83272170
   1.67144300 15.22953071  4.02013720
   0.00000000 15.22953071  2.54210930
   1.67144300 17.37287829  0.35469380
   0.00000000 17.37287829  1.83272170
   0.00000000 20.45908753  4.02013720
   1.67144300 20.45908753  2.54210930
   0.00000000 22.60240250  0.35469380
   1.67144300 22.60240250  1.83272170
 


--------------------------------------------------------------------------------------------------------


 k-point  1 :   0.0000 0.0000 0.0000  plane waves:    8627
 k-point  2 :   0.1667 0.0000 0.0000  plane waves:    8683
 k-point  3 :   0.3333 0.0000 0.0000  plane waves:    8669
 k-point  4 :   0.5000 0.0000 0.0000  plane waves:    8610
 k-point  5 :   0.0000 0.0000 0.2000  plane waves:    8700
 k-point  6 :   0.1667 0.0000 0.2000  plane waves:    8679
 k-point  7 :   0.3333 0.0000 0.2000  plane waves:    8640
 k-point  8 :   0.5000 0.0000 0.2000  plane waves:    8628
 k-point  9 :   0.0000 0.0000 0.4000  plane waves:    8762
 k-point 10 :   0.1667 0.0000 0.4000  plane waves:    8697
 k-point 11 :   0.3333 0.0000 0.4000  plane waves:    8640
 k-point 12 :   0.5000 0.0000 0.4000  plane waves:    8598

 maximum and minimum number of plane-waves per node :      1107     1063

 maximum number of plane-waves:      8762
 maximum index in each direction: 
   IXMAX=    5   IYMAX=   53   IZMAX=    7
   IXMIN=   -5   IYMIN=  -53   IZMIN=   -7


 parallel 3D FFT for wavefunctions:
    minimum data exchange during FFTs selected (reduces bandwidth)
 parallel 3D FFT for charge:
    minimum data exchange during FFTs selected (reduces bandwidth)


 total amount of memory used by VASP MPI-rank0    35089. kBytes
=======================================================================

   base      :      30000. kBytes
   nonl-proj :       1063. kBytes
   fftplans  :        792. kBytes
   grid      :       1070. kBytes
   one-center:          6. kBytes
   wavefun   :       2158. kBytes
 
     INWAV:  cpu time    0.0000: real time    0.0000
 Broyden mixing: mesh for mixing (old mesh)
   NGX = 11   NGY =107   NGZ = 15
  (NGX  = 32   NGY  =320   NGZ  = 48)
  gives a total of  17655 points

 initial charge density was supplied:
 charge density of overlapping atoms calculated
 number of electron      60.0000000 magnetization 
 keeping initial charge density in first step


--------------------------------------------------------------------------------------------------------


 Maximum index for augmentation-charges          313 (set IRDMAX)


--------------------------------------------------------------------------------------------------------


 First call to EWALD:  gamma=   0.227
 Maximum number of real-space cells 6x 1x 5
 Maximum number of reciprocal cells 1x10x 2

    FEWALD:  cpu time    0.0018: real time    0.0018


--------------------------------------- Iteration      1(   1)  ---------------------------------------


    POTLOK:  cpu time    0.0236: real time    0.0349
    SETDIJ:  cpu time    0.0658: real time    0.0659
     EDDAV:  cpu time    0.5226: real time    0.5239
       DOS:  cpu time    0.0006: real time    0.0006
    --------------------------------------------
      LOOP:  cpu time    0.6127: real time    0.6252

 eigenvalue-minimisations  :   960
 total energy-change (2. order) : 0.3383229E+03  (-0.1937782E+04)
 number of electron      60.0000000 magnetization 
 augmentation part       60.0000000 magnetization 

 Free energy of the ion-electron system (eV)
  ---------------------------------------------------
  alpha Z        PSCENC =        30.28014394
  Ewald energy   TEWEN  =     14973.24208224
  -Hartree energ DENC   =    -16928.93300519
  -exchange      EXHF   =         0.00000000
  -V(xc)+E(xc)   XCENC  =        40.33410248
  PAW double counting   =      1677.12035881    -1579.18296132
  entropy T*S    EENTRO =        -0.00048724
  eigenvalues    EBANDS =        12.97398244
  atomic energy  EATOM  =      2112.48864025
  Solvation  Ediel_sol  =         0.00000000
  ---------------------------------------------------
  free energy    TOTEN  =       338.32285640 eV

  energy without entropy =      338.32334364  energy(sigma->0) =      338.32310002


--------------------------------------------------------------------------------------------------------




--------------------------------------- Iteration      1(   2)  ---------------------------------------


     EDDAV:  cpu time    0.6352: real time    0.6376
       DOS:  cpu time    0.0004: real time    0.0004
    --------------------------------------------
      LOOP:  cpu time    0.6356: real time    0.6380

 eigenvalue-minimisations  :  1328
 total energy-change (2. order) :-0.3648562E+03  (-0.3534164E+03)
 number of electron      60.0000000 magnetization 
 augmentation part       60.0000000 magnetization 

 Free energy of the ion-electron system (eV)
  ---------------------------------------------------
  alpha Z        PSCENC =        30.28014394
  Ewald energy   TEWEN  =     14973.24208224
  -Hartree energ DENC   =    -16928.93300519
  -exchange      EXHF   =         0.00000000
  -V(xc)+E(xc)   XCENC  =        40.33410248
  PAW double counting   =      1677.12035881    -1579.18296132
  entropy T*S    EENTRO =        -0.00000000
  eigenvalues    EBANDS =      -351.88267027
  atomic energy  EATOM  =      2112.48864025
  Solvation  Ediel_sol  =         0.00000000
  ---------------------------------------------------
  free energy    TOTEN  =       -26.53330906 eV

  energy without entropy =      -26.53330906  energy(sigma->0) =      -26.53330906


--------------------------------------------------------------------------------------------------------




--------------------------------------- Iteration      1(   3)  ---------------------------------------


     EDDAV:  cpu time    0.5896: real time    0.5925
       DOS:  cpu time    0.0004: real time    0.0004
    --------------------------------------------
      LOOP:  cpu time    0.5900: real time    0.5929

 eigenvalue-minimisations  :  1128
 total energy-change (2. order) :-0.3682596E+02  (-0.3627813E+02)
 number of electron      60.0000000 magnetization 
 augmentation part       60.0000000 magnetization 

 Free energy of the ion-electron system (eV)
  ---------------------------------------------------
  alpha Z        PSCENC =        30.28014394
  Ewald energy   TEWEN  =     14973.24208224
  -Hartree energ DENC   =    -16928.93300519
  -exchange      EXHF   =         0.00000000
  -V(xc)+E(xc)   XCENC  =        40.33410248
  PAW double counting   =      1677.12035881    -1579.18296132
  entropy T*S    EENTRO =        -0.00000000
  eigenvalues    EBANDS =      -388.70862823
  atomic energy  EATOM  =      2112.48864025
  Solvation  Ediel_sol  =         0.00000000
  ---------------------------------------------------
  free energy    TOTEN  =       -63.35926702 eV

  energy without entropy =      -63.35926702  energy(sigma->0) =      -63.35926702


--------------------------------------------------------------------------------------------------------




--------------------------------------- Iteration      1(   4)  ---------------------------------------


     EDDAV:  cpu time    0.6839: real time    0.6852
       DOS:  cpu time    0.0004: real time    0.0004
    --------------------------------------------
      LOOP:  cpu time    0.6843: real time    0.6856

 eigenvalue-minimisations  :  1416
 total energy-change (2. order) :-0.1422260E+01  (-0.1413882E+01)
 number of electron      60.0000000 magnetization 
 augmentation part       60.0000000 magnetization 

 Free energy of the ion-electron system (eV)
  ---------------------------------------------------
  alpha Z        PSCENC =        30.28014394
  Ewald energy   TEWEN  =     14973.24208224
  -Hartree energ DENC   =    -16928.93300519
  -exchange      EXHF   =         0.00000000
  -V(xc)+E(xc)   XCENC  =        40.33410248
  PAW double counting   =      1677.12035881    -1579.18296132
  entropy T*S    EENTRO =        -0.00000000
  eigenvalues    EBANDS =      -390.13088805
  atomic energy  EATOM  =      2112.48864025
  Solvation  Ediel_sol  =         0.00000000
  ---------------------------------------------------
  free energy    TOTEN  =       -64.78152685 eV

  energy without entropy =      -64.78152685  energy(sigma->0) =      -64.78152685


--------------------------------------------------------------------------------------------------------




--------------------------------------- Iteration      1(   5)  ---------------------------------------


     EDDAV:  cpu time    0.6687: real time    0.6696
       DOS:  cpu time    0.0004: real time    0.0004
    CHARGE:  cpu time    0.0282: real time    0.0282
    MIXING:  cpu time    0.0007: real time    0.0007
    --------------------------------------------
      LOOP:  cpu time    0.6979: real time    0.6988

 eigenvalue-minimisations  :  1424
 total energy-change (2. order) :-0.4058053E-01  (-0.4054305E-01)
 number of electron      59.9999939 magnetization 
 augmentation part       -6.5185638 magnetization 

 Broyden mixing:
  rms(total) = 0.17512E+01    rms(broyden)= 0.17512E+01
  rms(prec ) = 0.17567E+01
  weight for this iteration     100.00

 Free energy of the ion-electron system (eV)
  ---------------------------------------------------
  alpha Z        PSCENC =        30.28014394
  Ewald energy   TEWEN  =     14973.24208224
  -Hartree energ DENC   =    -16928.93300519
  -exchange      EXHF   =         0.00000000
  -V(xc)+E(xc)   XCENC  =        40.33410248
  PAW double counting   =      1677.12035881    -1579.18296132
  entropy T*S    EENTRO =        -0.00000000
  eigenvalues    EBANDS =      -390.17146859
  atomic energy  EATOM  =      2112.48864025
  Solvation  Ediel_sol  =         0.00000000
  ---------------------------------------------------
  free energy    TOTEN  =       -64.82210738 eV

  energy without entropy =      -64.82210738  energy(sigma->0) =      -64.82210738


--------------------------------------------------------------------------------------------------------




--------------------------------------- Iteration      1(   6)  ---------------------------------------


    POTLOK:  cpu time    0.0145: real time    0.0159
    SETDIJ:  cpu time    0.0659: real time    0.0659
     EDDAV:  cpu time    0.6056: real time    0.6064
       DOS:  cpu time    0.0005: real time    0.0005
    CHARGE:  cpu time    0.0282: real time    0.0282
    MIXING:  cpu time    0.0007: real time    0.0007
    --------------------------------------------
      LOOP:  cpu time    0.7152: real time    0.7175

 eigenvalue-minimisations  :  1248
 total energy-change (2. order) : 0.3240622E+00  (-0.2003040E-01)
 number of electron      59.9999940 magnetization 
 augmentation part       -6.4804115 magnetization 

 Broyden mixing:
  rms(total) = 0.10381E+01    rms(broyden)= 0.10381E+01
  rms(prec ) = 0.10413E+01
  weight for this iteration     100.00

 eigenvalues of (default mixing * dielectric matrix)
  average eigenvalue GAMMA=   2.4477
  2.4477

 Free energy of the ion-electron system (eV)
  ---------------------------------------------------
  alpha Z        PSCENC =        30.28014394
  Ewald energy   TEWEN  =     14973.24208224
  -Hartree energ DENC   =    -16941.14582326
  -exchange      EXHF   =         0.00000000
  -V(xc)+E(xc)   XCENC  =        41.37450955
  PAW double counting   =      3128.24525800    -3030.76958515
  entropy T*S    EENTRO =        -0.00000000
  eigenvalues    EBANDS =      -378.21327070
  atomic energy  EATOM  =      2112.48864025
  Solvation  Ediel_sol  =         0.00000000
  ---------------------------------------------------
  free energy    TOTEN  =       -64.49804513 eV

  energy without entropy =      -64.49804513  energy(sigma->0) =      -64.49804513


--------------------------------------------------------------------------------------------------------




--------------------------------------- Iteration      1(   7)  ---------------------------------------


    POTLOK:  cpu time    0.0127: real time    0.0141
    SETDIJ:  cpu time    0.0659: real time    0.0659
     EDDAV:  cpu time    0.5847: real time    0.5854
       DOS:  cpu time    0.0005: real time    0.0005
    CHARGE:  cpu time    0.0284: real time    0.0284
    MIXING:  cpu time    0.0006: real time    0.0006
    --------------------------------------------
      LOOP:  cpu time    0.6929: real time    0.6949

 eigenvalue-minimisations  :  1192
 total energy-change (2. order) : 0.1479417E+00  (-0.3628305E-01)
 number of electron      59.9999940 magnetization 
 augmentation part       -6.4339111 magnetization 

 Broyden mixing:
  rms(total) = 0.44195E-01    rms(broyden)= 0.44194E-01
  rms(prec ) = 0.45519E-01
  weight for this iteration     100.00

 eigenvalues of (default mixing * dielectric matrix)
  average eigenvalue GAMMA=   2.0641
  1.5969  2.5313

 Free energy of the ion-electron system (eV)
  ---------------------------------------------------
  alpha Z        PSCENC =        30.28014394
  Ewald energy   TEWEN  =     14973.24208224
  -Hartree energ DENC   =    -16959.81146734
  -exchange      EXHF   =         0.00000000
  -V(xc)+E(xc)   XCENC  =        43.05807637
  PAW double counting   =      6223.71095701    -6126.80015481
  entropy T*S    EENTRO =        -0.00000016
  eigenvalues    EBANDS =      -360.51838097
  atomic energy  EATOM  =      2112.48864025
  Solvation  Ediel_sol  =         0.00000000
  ---------------------------------------------------
  free energy    TOTEN  =       -64.35010347 eV

  energy without entropy =      -64.35010331  energy(sigma->0) =      -64.35010339


--------------------------------------------------------------------------------------------------------




--------------------------------------- Iteration      1(   8)  ---------------------------------------


    POTLOK:  cpu time    0.0143: real time    0.0145
    SETDIJ:  cpu time    0.0658: real time    0.0659
     EDDAV:  cpu time    0.6069: real time    0.6077
       DOS:  cpu time    0.0005: real time    0.0005
    CHARGE:  cpu time    0.0284: real time    0.0284
    MIXING:  cpu time    0.0006: real time    0.0006
    --------------------------------------------
      LOOP:  cpu time    0.7165: real time    0.7176

 eigenvalue-minimisations  :  1240
 total energy-change (2. order) : 0.2729862E-03  (-0.3288257E-02)
 number of electron      59.9999940 magnetization 
 augmentation part       -6.4443711 magnetization 

 Broyden mixing:
  rms(total) = 0.23483E-01    rms(broyden)= 0.23483E-01
  rms(prec ) = 0.24151E-01
  weight for this iteration     100.00

 eigenvalues of (default mixing * dielectric matrix)
  average eigenvalue GAMMA=   1.5971
  2.5260  1.0427  1.2227

 Free energy of the ion-electron system (eV)
  ---------------------------------------------------
  alpha Z        PSCENC =        30.28014394
  Ewald energy   TEWEN  =     14973.24208224
  -Hartree energ DENC   =    -16961.03454641
  -exchange      EXHF   =         0.00000000
  -V(xc)+E(xc)   XCENC  =        43.08992087
  PAW double counting   =      6332.56736015    -6235.58377837
  entropy T*S    EENTRO =        -0.00000004
  eigenvalues    EBANDS =      -359.39965312
  atomic energy  EATOM  =      2112.48864025
  Solvation  Ediel_sol  =         0.00000000
  ---------------------------------------------------
  free energy    TOTEN  =       -64.34983048 eV

  energy without entropy =      -64.34983044  energy(sigma->0) =      -64.34983046


--------------------------------------------------------------------------------------------------------




--------------------------------------- Iteration      1(   9)  ---------------------------------------


    POTLOK:  cpu time    0.0127: real time    0.0142
    SETDIJ:  cpu time    0.0658: real time    0.0658
     EDDAV:  cpu time    0.6896: real time    0.6906
       DOS:  cpu time    0.0005: real time    0.0005
    CHARGE:  cpu time    0.0294: real time    0.0294
    MIXING:  cpu time    0.0007: real time    0.0007
    --------------------------------------------
      LOOP:  cpu time    0.7986: real time    0.8012

 eigenvalue-minimisations  :  1416
 total energy-change (2. order) : 0.2227698E-04  (-0.1724317E-03)
 number of electron      59.9999940 magnetization 
 augmentation part       -6.4446350 magnetization 

 Broyden mixing:
  rms(total) = 0.19871E-01    rms(broyden)= 0.19871E-01
  rms(prec ) = 0.20447E-01
  weight for this iteration     100.00

 eigenvalues of (default mixing * dielectric matrix)
  average eigenvalue GAMMA=   1.8535
  2.3246  2.3246  1.3825  1.3825

 Free energy of the ion-electron system (eV)
  ---------------------------------------------------
  alpha Z        PSCENC =        30.28014394
  Ewald energy   TEWEN  =     14973.24208224
  -Hartree energ DENC   =    -16961.79263330
  -exchange      EXHF   =         0.00000000
  -V(xc)+E(xc)   XCENC  =        43.09841045
  PAW double counting   =      6331.38194497    -6234.39171178
  entropy T*S    EENTRO =        -0.00000004
  eigenvalues    EBANDS =      -358.65668493
  atomic energy  EATOM  =      2112.48864025
  Solvation  Ediel_sol  =         0.00000000
  ---------------------------------------------------
  free energy    TOTEN  =       -64.34980821 eV

  energy without entropy =      -64.34980817  energy(sigma->0) =      -64.34980819


--------------------------------------------------------------------------------------------------------




--------------------------------------- Iteration      1(  10)  ---------------------------------------


    POTLOK:  cpu time    0.0148: real time    0.0150
    SETDIJ:  cpu time    0.0658: real time    0.0658
     EDDAV:  cpu time    0.6029: real time    0.6037
       DOS:  cpu time    0.0005: real time    0.0005
    CHARGE:  cpu time    0.0282: real time    0.0282
    MIXING:  cpu time    0.0006: real time    0.0006
    --------------------------------------------
      LOOP:  cpu time    0.7128: real time    0.7138

 eigenvalue-minimisations  :  1192
 total energy-change (2. order) : 0.2434741E-03  (-0.4282913E-04)
 number of electron      59.9999940 magnetization 
 augmentation part       -6.4459758 magnetization 

 Broyden mixing:
  rms(total) = 0.14750E-01    rms(broyden)= 0.14750E-01
  rms(prec ) = 0.15207E-01
  weight for this iteration     100.00

 eigenvalues of (default mixing * dielectric matrix)
  average eigenvalue GAMMA=   1.7688
  2.5299  2.5299  1.5325  1.1259  1.1259

 Free energy of the ion-electron system (eV)
  ---------------------------------------------------
  alpha Z        PSCENC =        30.28014394
  Ewald energy   TEWEN  =     14973.24208224
  -Hartree energ DENC   =    -16962.88579408
  -exchange      EXHF   =         0.00000000
  -V(xc)+E(xc)   XCENC  =        43.08265614
  PAW double counting   =      6255.27023173    -6158.25472025
  entropy T*S    EENTRO =        -0.00000002
  eigenvalues    EBANDS =      -357.57280468
  atomic energy  EATOM  =      2112.48864025
  Solvation  Ediel_sol  =         0.00000000
  ---------------------------------------------------
  free energy    TOTEN  =       -64.34956473 eV

  energy without entropy =      -64.34956471  energy(sigma->0) =      -64.34956472


--------------------------------------------------------------------------------------------------------




--------------------------------------- Iteration      1(  11)  ---------------------------------------


    POTLOK:  cpu time    0.0131: real time    0.0145
    SETDIJ:  cpu time    0.0659: real time    0.0659
     EDDAV:  cpu time    0.6348: real time    0.6357
       DOS:  cpu time    0.0005: real time    0.0005
    CHARGE:  cpu time    0.0270: real time    0.0270
    MIXING:  cpu time    0.0007: real time    0.0007
    --------------------------------------------
      LOOP:  cpu time    0.7420: real time    0.7442

 eigenvalue-minimisations  :  1232
 total energy-change (2. order) : 0.2282977E-03  (-0.3802739E-04)
 number of electron      59.9999940 magnetization 
 augmentation part       -6.4455040 magnetization 

 Broyden mixing:
  rms(total) = 0.42786E-02    rms(broyden)= 0.42786E-02
  rms(prec ) = 0.48503E-02
  weight for this iteration     100.00

 eigenvalues of (default mixing * dielectric matrix)
  average eigenvalue GAMMA=   1.7436
  2.5852  2.5852  1.3682  1.1319  1.3955  1.3955

 Free energy of the ion-electron system (eV)
  ---------------------------------------------------
  alpha Z        PSCENC =        30.28014394
  Ewald energy   TEWEN  =     14973.24208224
  -Hartree energ DENC   =    -16964.72684419
  -exchange      EXHF   =         0.00000000
  -V(xc)+E(xc)   XCENC  =        43.11456624
  PAW double counting   =      6277.53674645    -6180.51675341
  entropy T*S    EENTRO =        -0.00000003
  eigenvalues    EBANDS =      -355.76791793
  atomic energy  EATOM  =      2112.48864025
  Solvation  Ediel_sol  =         0.00000000
  ---------------------------------------------------
  free energy    TOTEN  =       -64.34933644 eV

  energy without entropy =      -64.34933640  energy(sigma->0) =      -64.34933642


--------------------------------------------------------------------------------------------------------




--------------------------------------- Iteration      1(  12)  ---------------------------------------


    POTLOK:  cpu time    0.0131: real time    0.0147
    SETDIJ:  cpu time    0.0659: real time    0.0659
     EDDAV:  cpu time    0.5903: real time    0.5912
       DOS:  cpu time    0.0005: real time    0.0005
    CHARGE:  cpu time    0.0277: real time    0.0277
    MIXING:  cpu time    0.0007: real time    0.0007
    --------------------------------------------
      LOOP:  cpu time    0.6980: real time    0.7006

 eigenvalue-minimisations  :  1200
 total energy-change (2. order) :-0.1067604E-03  (-0.8062640E-05)
 number of electron      59.9999940 magnetization 
 augmentation part       -6.4453599 magnetization 

 Broyden mixing:
  rms(total) = 0.15479E-02    rms(broyden)= 0.15479E-02
  rms(prec ) = 0.22120E-02
  weight for this iteration     100.00

 eigenvalues of (default mixing * dielectric matrix)
  average eigenvalue GAMMA=   1.8347
  3.3312  2.5001  1.6808  1.4918  1.4918  1.0702  1.2773

 Free energy of the ion-electron system (eV)
  ---------------------------------------------------
  alpha Z        PSCENC =        30.28014394
  Ewald energy   TEWEN  =     14973.24208224
  -Hartree energ DENC   =    -16965.73262743
  -exchange      EXHF   =         0.00000000
  -V(xc)+E(xc)   XCENC  =        43.12195264
  PAW double counting   =      6284.68994692    -6187.67000806
  entropy T*S    EENTRO =        -0.00000003
  eigenvalues    EBANDS =      -354.76957366
  atomic energy  EATOM  =      2112.48864025
  Solvation  Ediel_sol  =         0.00000000
  ---------------------------------------------------
  free energy    TOTEN  =       -64.34944320 eV

  energy without entropy =      -64.34944316  energy(sigma->0) =      -64.34944318


--------------------------------------------------------------------------------------------------------




--------------------------------------- Iteration      1(  13)  ---------------------------------------


    POTLOK:  cpu time    0.0131: real time    0.0147
    SETDIJ:  cpu time    0.0659: real time    0.0659
     EDDAV:  cpu time    0.5741: real time    0.5748
       DOS:  cpu time    0.0005: real time    0.0005
    CHARGE:  cpu time    0.0269: real time    0.0269
    MIXING:  cpu time    0.0008: real time    0.0008
    --------------------------------------------
      LOOP:  cpu time    0.6813: real time    0.6837

 eigenvalue-minimisations  :  1152
 total energy-change (2. order) :-0.2155689E-03  (-0.8157525E-05)
 number of electron      59.9999940 magnetization 
 augmentation part       -6.4451590 magnetization 

 Broyden mixing:
  rms(total) = 0.42088E-02    rms(broyden)= 0.42088E-02
  rms(prec ) = 0.42902E-02
  weight for this iteration     100.00

 eigenvalues of (default mixing * dielectric matrix)
  average eigenvalue GAMMA=   1.7541
  3.2044  2.3344  2.3344  1.7629  1.1848  1.1848  1.0759  0.9514

 Free energy of the ion-electron system (eV)
  ---------------------------------------------------
  alpha Z        PSCENC =        30.28014394
  Ewald energy   TEWEN  =     14973.24208224
  -Hartree energ DENC   =    -16966.96355894
  -exchange      EXHF   =         0.00000000
  -V(xc)+E(xc)   XCENC  =        43.13138063
  PAW double counting   =      6290.21807486    -6193.19769748
  entropy T*S    EENTRO =        -0.00000004
  eigenvalues    EBANDS =      -353.54872423
  atomic energy  EATOM  =      2112.48864025
  Solvation  Ediel_sol  =         0.00000000
  ---------------------------------------------------
  free energy    TOTEN  =       -64.34965876 eV

  energy without entropy =      -64.34965873  energy(sigma->0) =      -64.34965874


--------------------------------------------------------------------------------------------------------




--------------------------------------- Iteration      1(  14)  ---------------------------------------


    POTLOK:  cpu time    0.0143: real time    0.0145
    SETDIJ:  cpu time    0.0661: real time    0.0661
     EDDAV:  cpu time    0.4838: real time    0.4847
       DOS:  cpu time    0.0005: real time    0.0005
    CHARGE:  cpu time    0.0285: real time    0.0285
    MIXING:  cpu time    0.0009: real time    0.0009
    --------------------------------------------
      LOOP:  cpu time    0.5940: real time    0.5951

 eigenvalue-minimisations  :   864
 total energy-change (2. order) :-0.8438824E-04  (-0.8139584E-06)
 number of electron      59.9999940 magnetization 
 augmentation part       -6.4451304 magnetization 

 Broyden mixing:
  rms(total) = 0.30856E-02    rms(broyden)= 0.30856E-02
  rms(prec ) = 0.31649E-02
  weight for this iteration     100.00

 eigenvalues of (default mixing * dielectric matrix)
  average eigenvalue GAMMA=   1.7479
  2.8827  2.3347  2.3347  2.1270  1.5512  1.5512  1.0754  0.9370  0.9370

 Free energy of the ion-electron system (eV)
  ---------------------------------------------------
  alpha Z        PSCENC =        30.28014394
  Ewald energy   TEWEN  =     14973.24208224
  -Hartree energ DENC   =    -16967.15883566
  -exchange      EXHF   =         0.00000000
  -V(xc)+E(xc)   XCENC  =        43.13153983
  PAW double counting   =      6288.03846085    -6191.01838762
  entropy T*S    EENTRO =        -0.00000004
  eigenvalues    EBANDS =      -353.35338693
  atomic energy  EATOM  =      2112.48864025
  Solvation  Ediel_sol  =         0.00000000
  ---------------------------------------------------
  free energy    TOTEN  =       -64.34974315 eV

  energy without entropy =      -64.34974311  energy(sigma->0) =      -64.34974313


--------------------------------------------------------------------------------------------------------




--------------------------------------- Iteration      1(  15)  ---------------------------------------


    POTLOK:  cpu time    0.0129: real time    0.0147
    SETDIJ:  cpu time    0.0660: real time    0.0660
     EDDAV:  cpu time    0.4757: real time    0.4766
       DOS:  cpu time    0.0005: real time    0.0005
    CHARGE:  cpu time    0.0276: real time    0.0276
    MIXING:  cpu time    0.0008: real time    0.0008
    --------------------------------------------
      LOOP:  cpu time    0.5835: real time    0.5862

 eigenvalue-minimisations  :   880
 total energy-change (2. order) :-0.1622314E-03  (-0.8741561E-06)
 number of electron      59.9999940 magnetization 
 augmentation part       -6.4450977 magnetization 

 Broyden mixing:
  rms(total) = 0.13043E-02    rms(broyden)= 0.13043E-02
  rms(prec ) = 0.13929E-02
  weight for this iteration     100.00

 eigenvalues of (default mixing * dielectric matrix)
  average eigenvalue GAMMA=   2.0338
  6.0383  2.7162  2.2235  2.2235  1.6817  1.2860  1.2860  1.1409  0.8709  0.8709

 Free energy of the ion-electron system (eV)
  ---------------------------------------------------
  alpha Z        PSCENC =        30.28014394
  Ewald energy   TEWEN  =     14973.24208224
  -Hartree energ DENC   =    -16967.45165496
  -exchange      EXHF   =         0.00000000
  -V(xc)+E(xc)   XCENC  =        43.13041069
  PAW double counting   =      6280.25037628    -6183.23025327
  entropy T*S    EENTRO =        -0.00000004
  eigenvalues    EBANDS =      -353.05965051
  atomic energy  EATOM  =      2112.48864025
  Solvation  Ediel_sol  =         0.00000000
  ---------------------------------------------------
  free energy    TOTEN  =       -64.34990538 eV

  energy without entropy =      -64.34990534  energy(sigma->0) =      -64.34990536


--------------------------------------------------------------------------------------------------------




--------------------------------------- Iteration      1(  16)  ---------------------------------------


    POTLOK:  cpu time    0.0130: real time    0.0150
    SETDIJ:  cpu time    0.0661: real time    0.0661
     EDDAV:  cpu time    0.5311: real time    0.5318
       DOS:  cpu time    0.0005: real time    0.0005
    CHARGE:  cpu time    0.0275: real time    0.0275
    MIXING:  cpu time    0.0010: real time    0.0010
    --------------------------------------------
      LOOP:  cpu time    0.6392: real time    0.6418

 eigenvalue-minimisations  :   960
 total energy-change (2. order) :-0.1439422E-03  (-0.2075413E-05)
 number of electron      59.9999940 magnetization 
 augmentation part       -6.4450450 magnetization 

 Broyden mixing:
  rms(total) = 0.24031E-02    rms(broyden)= 0.24031E-02
  rms(prec ) = 0.24112E-02
  weight for this iteration     100.00

 eigenvalues of (default mixing * dielectric matrix)
  average eigenvalue GAMMA=   1.8747
  6.0450  2.7004  2.0541  2.0541  1.7457  1.2974  1.2974  1.2154  0.8051  0.7036
  0.7036

 Free energy of the ion-electron system (eV)
  ---------------------------------------------------
  alpha Z        PSCENC =        30.28014394
  Ewald energy   TEWEN  =     14973.24208224
  -Hartree energ DENC   =    -16968.03104556
  -exchange      EXHF   =         0.00000000
  -V(xc)+E(xc)   XCENC  =        43.13176140
  PAW double counting   =      6277.02269383    -6180.00211905
  entropy T*S    EENTRO =        -0.00000004
  eigenvalues    EBANDS =      -352.48220633
  atomic energy  EATOM  =      2112.48864025
  Solvation  Ediel_sol  =         0.00000000
  ---------------------------------------------------
  free energy    TOTEN  =       -64.35004933 eV

  energy without entropy =      -64.35004928  energy(sigma->0) =      -64.35004930


--------------------------------------------------------------------------------------------------------




--------------------------------------- Iteration      1(  17)  ---------------------------------------


    POTLOK:  cpu time    0.0142: real time    0.0144
    SETDIJ:  cpu time    0.0661: real time    0.0661
     EDDAV:  cpu time    0.4698: real time    0.4705
       DOS:  cpu time    0.0005: real time    0.0005
    --------------------------------------------
      LOOP:  cpu time    0.6349: real time    0.6359

 eigenvalue-minimisations  :   776
 total energy-change (2. order) :-0.4090899E-05  (-0.1105642E-06)
 number of electron      59.9999940 magnetization 
 augmentation part       -6.4450450 magnetization 

 Free energy of the ion-electron system (eV)
  ---------------------------------------------------
  alpha Z        PSCENC =        30.28014394
  Ewald energy   TEWEN  =     14973.24208224
  -Hartree energ DENC   =    -16968.04430085
  -exchange      EXHF   =         0.00000000
  -V(xc)+E(xc)   XCENC  =        43.13201035
  PAW double counting   =      6278.23089088    -6181.21030379
  entropy T*S    EENTRO =        -0.00000004
  eigenvalues    EBANDS =      -352.46921639
  atomic energy  EATOM  =      2112.48864025
  Solvation  Ediel_sol  =         0.00000000
  ---------------------------------------------------
  free energy    TOTEN  =       -64.35005342 eV

  energy without entropy =      -64.35005337  energy(sigma->0) =      -64.35005340


--------------------------------------------------------------------------------------------------------




 the core state eigenenergies are
   1-  1s  -2078.3915  2s   -168.4224  2p   -118.9080
   2-  1s  -2078.3915  2s   -168.4224  2p   -118.9080
   3-  1s  -2078.4504  2s   -168.4753  2p   -118.9615
   4-  1s  -2078.4504  2s   -168.4753  2p   -118.9615
   5-  1s  -2078.4797  2s   -168.5056  2p   -118.9917
   6-  1s  -2078.4797  2s   -168.5056  2p   -118.9917
   7-  1s  -2078.4797  2s   -168.5056  2p   -118.9917
   8-  1s  -2078.4797  2s   -168.5056  2p   -118.9917
   9-  1s  -2078.4504  2s   -168.4753  2p   -118.9615
  10-  1s  -2078.4504  2s   -168.4753  2p   -118.9615
  11-  1s  -2078.3915  2s   -168.4224  2p   -118.9080
  12-  1s  -2078.3915  2s   -168.4224  2p   -118.9080
 
 E-fermi :   0.9364     XC(G=0):  -5.1445     alpha+bet : -5.5572


 k-point     1 :       0.0000    0.0000    0.0000
  band No.  band energies     occupation 
      1     -14.8554      2.00000
      2     -14.7352      2.00000
      3     -14.6664      2.00000
      4     -12.3757      2.00000
      5     -12.1297      2.00000
      6     -11.9497      2.00000
      7      -8.6071      2.00000
      8      -8.5233      2.00000
      9      -8.4929      2.00000
     10      -5.9265      2.00000
     11      -5.5474      2.00000
     12      -5.1289      2.00000
     13      -4.5087      2.00000
     14      -4.5066      2.00000
     15      -4.1913      2.00000
     16      -4.1448      2.00000
     17      -3.9972      2.00000
     18      -3.9252      2.00000
     19      -3.3948      2.00000
     20      -3.2941      2.00000
     21      -3.2442      2.00000
     22      -1.8823      2.00000
     23      -1.7382      2.00000
     24      -1.6278      2.00000
     25      -1.5912      2.00000
     26      -1.5060      2.00000
     27      -1.1110      2.00000
     28      -0.2529      2.00000
     29       0.3509      2.00000
     30       0.9063      1.99998
     31       0.9665      0.00002
     32       1.4943      0.00000
     33       1.5214      0.00000
     34       1.6946      0.00000
     35       1.7036      0.00000
     36       1.8595      0.00000
     37       2.7285      0.00000
     38       2.8992      0.00000
     39       2.9702      0.00000
     40       3.7115      0.00000

 k-point     2 :       0.1667    0.0000    0.0000
  band No.  band energies     occupation 
      1     -14.5319      2.00000
      2     -14.4129      2.00000
      3     -14.3453      2.00000
      4     -12.0390      2.00000
      5     -11.7944      2.00000
      6     -11.6155      2.00000
      7      -8.8997      2.00000
      8      -8.8390      2.00000
      9      -8.8329      2.00000
     10      -5.6535      2.00000
     11      -5.2820      2.00000
     12      -4.9754      2.00000
     13      -4.8944      2.00000
     14      -4.8866      2.00000
     15      -4.8565      2.00000
     16      -4.4296      2.00000
     17      -4.3562      2.00000
     18      -4.3456      2.00000
     19      -4.2205      2.00000
     20      -3.8761      2.00000
     21      -3.7317      2.00000
     22      -2.6636      2.00000
     23      -2.5134      2.00000
     24      -2.3481      2.00000
     25      -1.7443      2.00000
     26      -1.4735      2.00000
     27      -0.9711      2.00000
     28      -0.2171      2.00000
     29       0.1833      2.00000
     30       0.4536      2.00000
     31       1.2498      0.00000
     32       1.6546      0.00000
     33       1.8788      0.00000
     34       2.3374      0.00000
     35       2.5493      0.00000
     36       2.5740      0.00000
     37       3.7487      0.00000
     38       3.8743      0.00000
     39       3.9790      0.00000
     40       4.3127      0.00000

 k-point     3 :       0.3333    0.0000    0.0000
  band No.  band energies     occupation 
      1     -13.5788      2.00000
      2     -13.4639      2.00000
      3     -13.4007      2.00000
      4     -11.0374      2.00000
      5     -10.7975      2.00000
      6     -10.6223      2.00000
      7     -10.2423      2.00000
      8     -10.1633      2.00000
      9     -10.1382      2.00000
     10      -7.2236      2.00000
     11      -7.0273      2.00000
     12      -6.8890      2.00000
     13      -4.9325      2.00000
     14      -4.9066      2.00000
     15      -4.8505      2.00000
     16      -4.8414      2.00000
     17      -4.6069      2.00000
     18      -4.3172      2.00000
     19      -3.4277      2.00000
     20      -3.1585      2.00000
     21      -3.0355      2.00000
     22      -2.6884      2.00000
     23      -2.3989      2.00000
     24      -2.1642      2.00000
     25      -1.7932      2.00000
     26      -1.5245      2.00000
     27      -1.1929      2.00000
     28      -0.8963      2.00000
     29      -0.7565      2.00000
     30      -0.6931      2.00000
     31       1.1092      0.00000
     32       1.1703      0.00000
     33       1.4324      0.00000
     34       2.0708      0.00000
     35       2.2835      0.00000
     36       2.6010      0.00000
     37       2.6432      0.00000
     38       2.6604      0.00000
     39       2.6670      0.00000
     40       2.9523      0.00000

 k-point     4 :       0.5000    0.0000    0.0000
  band No.  band energies     occupation 
      1     -12.0682      2.00000
      2     -12.0682      2.00000
      3     -11.9634      2.00000
      4     -11.9634      2.00000
      5     -11.9108      2.00000
      6     -11.9108      2.00000
      7      -9.4021      2.00000
      8      -9.4021      2.00000
      9      -9.1732      2.00000
     10      -9.1732      2.00000
     11      -9.0069      2.00000
     12      -9.0069      2.00000
     13      -4.4706      2.00000
     14      -4.4706      2.00000
     15      -4.3363      2.00000
     16      -4.3363      2.00000
     17      -4.2906      2.00000
     18      -4.2906      2.00000
     19      -2.4692      2.00000
     20      -2.4692      2.00000
     21      -2.3960      2.00000
     22      -2.3960      2.00000
     23      -2.3957      2.00000
     24      -2.3957      2.00000
     25      -2.0135      2.00000
     26      -2.0135      2.00000
     27      -1.7429      2.00000
     28      -1.7429      2.00000
     29      -1.4908      2.00000
     30      -1.4908      2.00000
     31       1.6170      0.00000
     32       1.6170      0.00000
     33       1.6297      0.00000
     34       1.6297      0.00000
     35       1.7116      0.00000
     36       1.7116      0.00000
     37       2.1531      0.00000
     38       2.1534      0.00000
     39       2.1892      0.00000
     40       2.1898      0.00000

 k-point     5 :       0.0000    0.0000    0.2000
  band No.  band energies     occupation 
      1     -14.6290      2.00000
      2     -14.5132      2.00000
      3     -14.4491      2.00000
      4     -12.5043      2.00000
      5     -12.3345      2.00000
      6     -12.2382      2.00000
      7      -8.9150      2.00000
      8      -8.8052      2.00000
      9      -8.7320      2.00000
     10      -6.5042      2.00000
     11      -6.2829      2.00000
     12      -6.2164      2.00000
     13      -4.5607      2.00000
     14      -4.2231      2.00000
     15      -3.6563      2.00000
     16      -3.4669      2.00000
     17      -3.2151      2.00000
     18      -3.1196      2.00000
     19      -3.0860      2.00000
     20      -3.0843      2.00000
     21      -3.0752      2.00000
     22      -1.8143      2.00000
     23      -1.6984      2.00000
     24      -1.6445      2.00000
     25      -1.3713      2.00000
     26      -0.7455      2.00000
     27      -0.6506      2.00000
     28      -0.5736      2.00000
     29      -0.3060      2.00000
     30      -0.1256      2.00000
     31       1.5727      0.00000
     32       1.9134      0.00000
     33       2.0046      0.00000
     34       2.0684      0.00000
     35       2.3817      0.00000
     36       2.3904      0.00000
     37       2.4722      0.00000
     38       2.4745      0.00000
     39       2.8675      0.00000
     40       3.4514      0.00000

 k-point     6 :       0.1667    0.0000    0.2000
  band No.  band energies     occupation 
      1     -14.3085      2.00000
      2     -14.1939      2.00000
      3     -14.1310      2.00000
      4     -12.1819      2.00000
      5     -12.0165      2.00000
      6     -11.9246      2.00000
      7      -9.0197      2.00000
      8      -8.9085      2.00000
      9      -8.8376      2.00000
     10      -6.4131      2.00000
     11      -6.2305      2.00000
     12      -6.1488      2.00000
     13      -4.9924      2.00000
     14      -4.8549      2.00000
     15      -4.7210      2.00000
     16      -4.6383      2.00000
     17      -4.2172      2.00000
     18      -3.8365      2.00000
     19      -3.1689      2.00000
     20      -3.1013      2.00000
     21      -2.9156      2.00000
     22      -2.7438      2.00000
     23      -2.5083      2.00000
     24      -2.5037      2.00000
     25      -1.1971      2.00000
     26      -0.9631      2.00000
     27      -0.8384      2.00000
     28      -0.7093      2.00000
     29      -0.4932      2.00000
     30      -0.1804      2.00000
     31       1.8011      0.00000
     32       2.0631      0.00000
     33       2.3767      0.00000
     34       2.6106      0.00000
     35       2.8372      0.00000
     36       3.0003      0.00000
     37       3.4983      0.00000
     38       3.6109      0.00000
     39       3.7310      0.00000
     40       4.3042      0.00000

 k-point     7 :       0.3333    0.0000    0.2000
  band No.  band energies     occupation 
      1     -13.3692      2.00000
      2     -13.2592      2.00000
      3     -13.2010      2.00000
      4     -11.3063      2.00000
      5     -11.1744      2.00000
      6     -11.1154      2.00000
      7      -9.9100      2.00000
      8      -9.7627      2.00000
      9      -9.6619      2.00000
     10      -7.4084      2.00000
     11      -7.2896      2.00000
     12      -7.2352      2.00000
     13      -5.6704      2.00000
     14      -5.5309      2.00000
     15      -5.4190      2.00000
     16      -4.7898      2.00000
     17      -4.5966      2.00000
     18      -4.5917      2.00000
     19      -3.1753      2.00000
     20      -3.1497      2.00000
     21      -3.0509      2.00000
     22      -2.5159      2.00000
     23      -2.4928      2.00000
     24      -2.4351      2.00000
     25      -2.1552      2.00000
     26      -1.8229      2.00000
     27      -1.3454      2.00000
     28      -0.8796      2.00000
     29      -0.7027      2.00000
     30      -0.6620      2.00000
     31       1.7559      0.00000
     32       1.7829      0.00000
     33       2.0371      0.00000
     34       2.2001      0.00000
     35       2.4611      0.00000
     36       2.7122      0.00000
     37       2.7134      0.00000
     38       2.9506      0.00000
     39       3.1391      0.00000
     40       3.4473      0.00000

 k-point     8 :       0.5000    0.0000    0.2000
  band No.  band energies     occupation 
      1     -11.9261      2.00000
      2     -11.9261      2.00000
      3     -11.8294      2.00000
      4     -11.8294      2.00000
      5     -11.7856      2.00000
      6     -11.7856      2.00000
      7      -9.4171      2.00000
      8      -9.4171      2.00000
      9      -9.2355      2.00000
     10      -9.2355      2.00000
     11      -9.1197      2.00000
     12      -9.1197      2.00000
     13      -4.8852      2.00000
     14      -4.8852      2.00000
     15      -4.7192      2.00000
     16      -4.7192      2.00000
     17      -4.5987      2.00000
     18      -4.5987      2.00000
     19      -3.3746      2.00000
     20      -3.3746      2.00000
     21      -3.1756      2.00000
     22      -3.1756      2.00000
     23      -3.1132      2.00000
     24      -3.1132      2.00000
     25      -1.5720      2.00000
     26      -1.5720      2.00000
     27      -1.2694      2.00000
     28      -1.2694      2.00000
     29      -0.9581      2.00000
     30      -0.9581      2.00000
     31       1.6728      0.00000
     32       1.6728      0.00000
     33       1.9206      0.00000
     34       1.9206      0.00000
     35       2.0359      0.00000
     36       2.0359      0.00000
     37       3.2759      0.00000
     38       3.2759      0.00000
     39       3.3922      0.00000
     40       3.3927      0.00000

 k-point     9 :       0.0000    0.0000    0.4000
  band No.  band energies     occupation 
      1     -13.9855      2.00000
      2     -13.8877      2.00000
      3     -13.8433      2.00000
      4     -13.0866      2.00000
      5     -13.0270      2.00000
      6     -13.0250      2.00000
      7      -8.9315      2.00000
      8      -8.6576      2.00000
      9      -8.4201      2.00000
     10      -8.0135      2.00000
     11      -7.6883      2.00000
     12      -7.4147      2.00000
     13      -4.1058      2.00000
     14      -3.3826      2.00000
     15      -2.9602      2.00000
     16      -2.7283      2.00000
     17      -2.6520      2.00000
     18      -2.6283      2.00000
     19      -2.5791      2.00000
     20      -2.2280      2.00000
     21      -2.1405      2.00000
     22      -2.0809      2.00000
     23      -2.0806      2.00000
     24      -1.7930      2.00000
     25      -1.3336      2.00000
     26      -1.2924      2.00000
     27      -1.2498      2.00000
     28      -0.0166      2.00000
     29       0.0947      2.00000
     30       0.1422      2.00000
     31       1.9419      0.00000
     32       2.0539      0.00000
     33       2.0588      0.00000
     34       2.1228      0.00000
     35       2.3041      0.00000
     36       2.3278      0.00000
     37       3.1946      0.00000
     38       3.2101      0.00000
     39       3.3538      0.00000
     40       3.4428      0.00000

 k-point    10 :       0.1667    0.0000    0.4000
  band No.  band energies     occupation 
      1     -13.6739      2.00000
      2     -13.5771      2.00000
      3     -13.5337      2.00000
      4     -12.7835      2.00000
      5     -12.7239      2.00000
      6     -12.7222      2.00000
      7      -8.8253      2.00000
      8      -8.5695      2.00000
      9      -8.3571      2.00000
     10      -7.8622      2.00000
     11      -7.5702      2.00000
     12      -7.3347      2.00000
     13      -4.7004      2.00000
     14      -4.5729      2.00000
     15      -4.4653      2.00000
     16      -4.0351      2.00000
     17      -3.9838      2.00000
     18      -3.9415      2.00000
     19      -3.7083      2.00000
     20      -3.1367      2.00000
     21      -2.7269      2.00000
     22      -2.4514      2.00000
     23      -2.0761      2.00000
     24      -1.5898      2.00000
     25      -1.0376      2.00000
     26      -0.9286      2.00000
     27      -0.7938      2.00000
     28      -0.7904      2.00000
     29      -0.6045      2.00000
     30      -0.3835      2.00000
     31       2.6349      0.00000
     32       2.6523      0.00000
     33       2.8543      0.00000
     34       3.0788      0.00000
     35       3.1818      0.00000
     36       3.3898      0.00000
     37       3.4838      0.00000
     38       3.5980      0.00000
     39       4.0066      0.00000
     40       4.1621      0.00000

 k-point    11 :       0.3333    0.0000    0.4000
  band No.  band energies     occupation 
      1     -12.7803      2.00000
      2     -12.6881      2.00000
      3     -12.6494      2.00000
      4     -11.9620      2.00000
      5     -11.9021      2.00000
      6     -11.9019      2.00000
      7      -9.1484      2.00000
      8      -8.9795      2.00000
      9      -8.8709      2.00000
     10      -8.1537      2.00000
     11      -8.0441      2.00000
     12      -8.0030      2.00000
     13      -5.9800      2.00000
     14      -5.7539      2.00000
     15      -5.5592      2.00000
     16      -5.4367      2.00000
     17      -5.1897      2.00000
     18      -4.9956      2.00000
     19      -3.6966      2.00000
     20      -3.3436      2.00000
     21      -3.0639      2.00000
     22      -3.0311      2.00000
     23      -2.7123      2.00000
     24      -2.4868      2.00000
     25      -2.1592      2.00000
     26      -1.6571      2.00000
     27      -1.4501      2.00000
     28      -1.1192      2.00000
     29      -0.9380      2.00000
     30      -0.6307      2.00000
     31       2.1254      0.00000
     32       2.7435      0.00000
     33       2.9286      0.00000
     34       3.2673      0.00000
     35       3.3134      0.00000
     36       3.4303      0.00000
     37       3.6190      0.00000
     38       3.7910      0.00000
     39       4.3000      0.00000
     40       4.3258      0.00000

 k-point    12 :       0.5000    0.0000    0.4000
  band No.  band energies     occupation 
      1     -11.6332      2.00000
      2     -11.6332      2.00000
      3     -11.5652      2.00000
      4     -11.5652      2.00000
      5     -11.5523      2.00000
      6     -11.5523      2.00000
      7      -9.5071      2.00000
      8      -9.5071      2.00000
      9      -9.4217      2.00000
     10      -9.4217      2.00000
     11      -9.3998      2.00000
     12      -9.3998      2.00000
     13      -5.1515      2.00000
     14      -5.1515      2.00000
     15      -4.8858      2.00000
     16      -4.8858      2.00000
     17      -4.6540      2.00000
     18      -4.6540      2.00000
     19      -4.5351      2.00000
     20      -4.5351      2.00000
     21      -4.2320      2.00000
     22      -4.2320      2.00000
     23      -3.9796      2.00000
     24      -3.9796      2.00000
     25      -1.4055      2.00000
     26      -1.4055      2.00000
     27      -1.0935      2.00000
     28      -1.0935      2.00000
     29      -1.0158      2.00000
     30      -1.0158      2.00000
     31       2.6673      0.00000
     32       2.6673      0.00000
     33       2.7730      0.00000
     34       2.7730      0.00000
     35       2.9207      0.00000
     36       2.9207      0.00000
     37       4.1234      0.00000
     38       4.1310      0.00000
     39       4.2215      0.00000
     40       4.2472      0.00000


--------------------------------------------------------------------------------------------------------


 soft charge-density along one line, spin component           1
         0         1         2         3         4         5         6         7         8         9
 total charge-density along one line
 
 pseudopotential strength for first ion, spin component:           1
 29.686  37.032   0.035  -0.033   0.000   0.054  -0.051  -0.000
 37.032  46.200   0.043  -0.041  -0.000   0.068  -0.064  -0.000
  0.035   0.043   6.554   0.006  -0.000  10.135   0.009  -0.000
 -0.033  -0.041   0.006   6.558  -0.000   0.009  10.141  -0.000
  0.000  -0.000  -0.000  -0.000   6.562  -0.000  -0.000  10.148
  0.054   0.068  10.135   0.009  -0.000  15.692   0.014  -0.000
 -0.051  -0.064   0.009  10.141  -0.000   0.014  15.701  -0.000
 -0.000  -0.000  -0.000  -0.000  10.148  -0.000  -0.000  15.711
 total augmentation occupancy for first ion, spin component:           1
  8.298  -4.729   1.850  -1.945   0.000  -0.591   0.649   0.000
 -4.729   3.433  -1.589   1.651  -0.000   0.437  -0.476  -0.000
  1.850  -1.589   3.128   0.195   0.000  -0.824  -0.162   0.000
 -1.945   1.651   0.195   3.269   0.000  -0.161  -0.922   0.000
  0.000   0.000   0.000   0.000   3.398   0.000   0.000  -1.025
 -0.591   0.437  -0.824  -0.161   0.000   0.259   0.069   0.000
  0.649  -0.476  -0.162  -0.922   0.000   0.069   0.298   0.000
  0.000   0.000   0.000   0.000  -1.025   0.000   0.000   0.339


------------------------ aborting loop because EDIFF is reached ----------------------------------------


 


 total charge     
 
# of ion       s       p       d       tot
------------------------------------------
    1        1.082   1.376   0.000   2.458
    2        1.082   1.376   0.000   2.458
    3        1.083   1.372   0.000   2.455
    4        1.083   1.372   0.000   2.455
    5        1.084   1.371   0.000   2.455
    6        1.084   1.371   0.000   2.455
    7        1.084   1.371   0.000   2.455
    8        1.084   1.371   0.000   2.455
    9        1.083   1.372   0.000   2.455
   10        1.083   1.372   0.000   2.455
   11        1.082   1.376   0.000   2.458
   12        1.082   1.376   0.000   2.458
--------------------------------------------------
tot         12.997  16.475   0.000  29.472
 
    CHARGE:  cpu time    0.0286: real time    0.0286
    FORLOC:  cpu time    0.0012: real time    0.0012
    FORNL :  cpu time    0.1055: real time    0.1056
    STRESS:  cpu time    0.1626: real time    0.1627
    FORCOR:  cpu time    0.0132: real time    0.0132
    FORHAR:  cpu time    0.0040: real time    0.0040
    MIXING:  cpu time    0.0009: real time    0.0009
    OFIELD:  cpu time    0.0000: real time    0.0000

  DFT-D2 method for vdW energy calculation
  -------------------------------------------------------------------

  Parameters of vdW forcefield:
         C6(Jnm^6/mol)     R0(A)
   -----------------------------
   P        7.840          1.705

  IVDW =  10
  VDW_RADIUS =    50.000 A
  VDW_S6 =     0.750
  VDW_SR =     1.000
  VDW_D =    20.000
  LVDW_EWALD = F

  Number of pair interactions contributing to vdW energy:   88382
  Edisp (eV):   -2.17394
    FORVDW:  cpu time    0.0518: real time    0.0636

  FORCE on cell =-STRESS in cart. coord.  units (eV):
  Direction    XX          YY          ZZ          XY          YZ          ZX
  --------------------------------------------------------------------------------------
  Alpha Z    30.28014    30.28014    30.28014
  Ewald   16591.01473-18044.25022 16426.47569    -0.00000     0.00000     0.00000
  Hartree 16898.15523-16770.91161 16840.95218    -0.00000    -0.00000    -0.00000
  E(xc)    -201.42284  -202.67993  -201.61773    -0.00000     0.00000     0.00000
  Local  -34440.98759 33820.44468-34239.78532    -0.00000     0.00000     0.00000
  n-local   679.68404   677.97247   674.60503     0.00000     0.00000     1.83711
  augment  -126.42462  -130.43612  -128.82739     0.00000     0.00000     0.00000
  Kinetic   570.00903   620.08934   600.06966     0.00000     0.00000     7.42474
  Fock        0.00000     0.00000     0.00000     0.00000     0.00000     0.00000
  vdW        -0.23282    -1.41063    -0.99576    -0.00000    -0.00000     0.00000
  -------------------------------------------------------------------------------------
  Total       0.07530    -0.90188     1.15649     0.00000     0.00000     0.00000
  in kB       0.25305    -3.03059     3.88617     0.00000     0.00000     0.00000
  external pressure =        0.37 kB  Pullay stress =        0.00 kB


 VOLUME and BASIS-vectors are now :
 -----------------------------------------------------------------------------
  energy-cutoff  :      400.00
  volume of cell :      476.80
      direct lattice vectors                 reciprocal lattice vectors
     3.342886000  0.000000000  0.000000000     0.299142717  0.000000000  0.000000000
     0.000000000 32.602409000  0.000000000     0.000000000  0.030672580  0.000000000
     0.000000000  0.000000000  4.374831000     0.000000000  0.000000000  0.228580258

  length of vectors
     3.342886000 32.602409000  4.374831000     0.299142717  0.030672580  0.228580258


 FORCES acting on ions
    electron-ion (+dipol)            ewald-force                    non-local-force                 convergence-correction
 -----------------------------------------------------------------------------------------------
   -.297E-15 0.823E+03 -.291E+02   0.114E-14 -.828E+03 0.342E+02   -.278E-16 0.576E+01 -.518E+01   -.297E-14 0.655E-03 -.581E-03
   0.339E-14 0.823E+03 0.291E+02   -.458E-14 -.828E+03 -.342E+02   -.278E-16 0.576E+01 0.518E+01   0.195E-14 0.655E-03 0.581E-03
   0.375E-15 0.459E+03 0.260E+02   0.181E-14 -.453E+03 -.313E+02   -.278E-16 -.546E+01 0.523E+01   -.100E-14 -.178E-02 -.308E-04
   0.297E-14 0.459E+03 -.260E+02   -.613E-14 -.453E+03 0.313E+02   0.555E-16 -.546E+01 -.523E+01   -.482E-15 -.178E-02 0.308E-04
   0.115E-14 0.183E+03 -.262E+02   0.754E-15 -.189E+03 0.314E+02   0.000E+00 0.540E+01 -.523E+01   0.120E-14 0.425E-02 -.133E-02
   -.453E-15 0.183E+03 0.262E+02   -.638E-14 -.189E+03 -.314E+02   -.278E-16 0.540E+01 0.523E+01   -.684E-15 0.425E-02 0.133E-02
   0.341E-14 -.183E+03 0.262E+02   0.197E-14 0.189E+03 -.314E+02   0.000E+00 -.540E+01 0.523E+01   0.237E-14 -.425E-02 0.133E-02
   0.216E-16 -.183E+03 -.262E+02   -.498E-14 0.189E+03 0.314E+02   0.278E-16 -.540E+01 -.523E+01   -.155E-14 -.425E-02 -.133E-02
   -.125E-16 -.459E+03 -.260E+02   0.911E-15 0.453E+03 0.313E+02   0.278E-16 0.546E+01 -.523E+01   -.928E-15 0.178E-02 0.308E-04
   0.273E-14 -.459E+03 0.260E+02   -.523E-14 0.453E+03 -.313E+02   -.555E-16 0.546E+01 0.523E+01   0.322E-14 0.178E-02 -.308E-04
   0.295E-15 -.823E+03 0.291E+02   0.158E-14 0.828E+03 -.342E+02   0.278E-16 -.576E+01 0.518E+01   0.341E-14 -.655E-03 0.581E-03
   0.371E-14 -.823E+03 -.291E+02   -.679E-14 0.828E+03 0.342E+02   0.278E-16 -.576E+01 -.518E+01   -.321E-15 -.655E-03 -.581E-03
 -----------------------------------------------------------------------------------------------
   0.173E-13 0.347E-11 0.425E-10   -.259E-13 0.000E+00 -.711E-14   0.000E+00 0.000E+00 0.000E+00   0.419E-14 -.230E-11 -.154E-13
 
 
 POSITION                                       TOTAL-FORCE (eV/Angst)
 -----------------------------------------------------------------------------------
      0.00000     10.00001      4.02014        -0.000000      0.080638     -0.054834
      1.67144     10.00001      2.54211         0.000000      0.080638      0.054834
      0.00000     12.14332      0.35469         0.000000     -0.078992     -0.004311
      1.67144     12.14332      1.83272         0.000000     -0.078992      0.004311
      1.67144     15.22953      4.02014         0.000000      0.041741     -0.011970
      0.00000     15.22953      2.54211         0.000000      0.041741      0.011970
      1.67144     17.37288      0.35469         0.000000     -0.041741      0.011970
      0.00000     17.37288      1.83272         0.000000     -0.041741     -0.011970
      0.00000     20.45909      4.02014        -0.000000      0.078992      0.004311
      1.67144     20.45909      2.54211         0.000000      0.078992     -0.004311
      0.00000     22.60240      0.35469         0.000000     -0.080638      0.054834
      1.67144     22.60240      1.83272        -0.000000     -0.080638     -0.054834
 -----------------------------------------------------------------------------------
    total drift:                               -0.000000      0.000000      0.000000


--------------------------------------------------------------------------------------------------------



  FREE ENERGIE OF THE ION-ELECTRON SYSTEM (eV)
  ---------------------------------------------------
  free  energy   TOTEN  =       -66.52399294 eV

  energy  without entropy=      -66.52399289  energy(sigma->0) =      -66.52399292
 


--------------------------------------------------------------------------------------------------------


    POTLOK:  cpu time    0.1183: real time    0.1183


--------------------------------------------------------------------------------------------------------


 writing wavefunctions
     LOOP+:  cpu time   12.9608: real time   13.0228
    4ORBIT:  cpu time    0.0000: real time    0.0000
 


 total charge     
 
# of ion       s       p       d       tot
------------------------------------------
    1        1.082   1.376   0.000   2.458
    2        1.082   1.376   0.000   2.458
    3        1.083   1.372   0.000   2.455
    4        1.083   1.372   0.000   2.455
    5        1.084   1.371   0.000   2.455
    6        1.084   1.371   0.000   2.455
    7        1.084   1.371   0.000   2.455
    8        1.084   1.371   0.000   2.455
    9        1.083   1.372   0.000   2.455
   10        1.083   1.372   0.000   2.455
   11        1.082   1.376   0.000   2.458
   12        1.082   1.376   0.000   2.458
--------------------------------------------------
tot         12.997  16.475   0.000  29.472
 

 total amount of memory used by VASP MPI-rank0    35089. kBytes
=======================================================================

   base      :      30000. kBytes
   nonl-proj :       1063. kBytes
   fftplans  :        792. kBytes
   grid      :       1070. kBytes
   one-center:          6. kBytes
   wavefun   :       2158. kBytes
 
  
  
 General timing and accounting informations for this job:
 ========================================================
  
                  Total CPU time used (sec):       18.508
                            User time (sec):       16.372
                          System time (sec):        2.136
                         Elapsed time (sec):       18.914
  
                   Maximum memory used (kb):      107696.
                   Average memory used (kb):           0.
  
                          Minor page faults:        33914
                          Major page faults:            0
                 Voluntary context switches:         1922
