<?xml version="1.0" encoding="ISO-8859-1"?>
<modeling>
 <generator>
  <i name="program" type="string">vasp </i>
  <i name="version" type="string">5.4.4.18Apr17-6-g9f103f2a35  </i>
  <i name="subversion" type="string">(build Jun 20 2017 18:00:50) complex            parallel </i>
  <i name="platform" type="string">LinuxIFC </i>
  <i name="date" type="string">2018 03 16 </i>
  <i name="time" type="string">15:58:43 </i>
 </generator>
 <incar>
  <i type="string" name="SYSTEM"> Generic Input</i>
  <i type="int" name="ISTART">     1</i>
  <i type="string" name="PREC">normal    ! precision level</i>
  <i type="int" name="IALGO">    53</i>
  <i type="string" name="ALGO"> Normal    ! SCF minimisation algorithm</i>
  <i type="int" name="INIWAV">     1</i>
  <i type="int" name="NELM">   200</i>
  <i type="int" name="NELMIN">     2</i>
  <i type="int" name="IBRION">     2</i>
  <i name="EDIFF">      0.00001000</i>
  <i name="EDIFFG">     -0.02000000</i>
  <i type="int" name="NSW">     0</i>
  <i type="int" name="ISIF">     3</i>
  <i type="int" name="IWAVPR">    11</i>
  <i type="int" name="NBLOCK">     1</i>
  <i type="int" name="KBLOCK">    40</i>
  <i name="ENCUT">    400.00000000</i>
  <i type="int" name="NEDOS">  2000</i>
  <i type="int" name="ISMEAR">     0</i>
  <i name="SIGMA">      0.01000000</i>
  <i type="int" name="NWRITE">     2</i>
  <i type="logical" name="LVHAR"> T  </i>
  <i type="int" name="LORBIT">    11</i>
  <i type="logical" name="LASPH"> T  </i>
  <i type="int" name="ICORELEVEL">     1</i>
  <v type="int" name="KPOINT_BSE">    -1     0     0     0</v>
  <i type="int" name="NELM">   200</i>
  <i type="string" name="GGA"> PE        ! PBEsol exchange-correlation</i>
  <i type="logical" name="LASPH"> T  </i>
 </incar>
 <structure name="primitive_cell" >
  <crystal>
   <varray name="basis" >
    <v>       3.34288600       0.00000000       0.00000000 </v>
    <v>       0.00000000      32.60240900       0.00000000 </v>
    <v>       0.00000000       0.00000000       4.37483100 </v>
   </varray>
   <i name="volume">    476.79592902 </i>
   <varray name="rec_basis" >
    <v>       0.29914272       0.00000000       0.00000000 </v>
    <v>       0.00000000       0.03067258       0.00000000 </v>
    <v>       0.00000000       0.00000000       0.22858026 </v>
   </varray>
  </crystal>
  <varray name="positions" >
   <v>       0.00000000       0.30672600      -0.08107600 </v>
   <v>      -0.50000000       0.30672600      -0.41892400 </v>
   <v>       0.00000000       0.37246700       0.08107600 </v>
   <v>      -0.50000000       0.37246700       0.41892400 </v>
   <v>       0.00000000       0.46712900      -0.41892400 </v>
   <v>      -0.50000000       0.46712900      -0.08107600 </v>
   <v>      -0.50000000      -0.46712900       0.08107600 </v>
   <v>       0.00000000      -0.46712900       0.41892400 </v>
   <v>       0.00000000      -0.37246700      -0.08107600 </v>
   <v>      -0.50000000      -0.37246700      -0.41892400 </v>
   <v>       0.00000000      -0.30672600       0.08107600 </v>
   <v>      -0.50000000      -0.30672600       0.41892400 </v>
  </varray>
 </structure>
 <varray name="primitive_index" >
  <v type="int" >        1 </v>
  <v type="int" >        2 </v>
  <v type="int" >        3 </v>
  <v type="int" >        4 </v>
  <v type="int" >        6 </v>
  <v type="int" >        5 </v>
  <v type="int" >        7 </v>
  <v type="int" >        8 </v>
  <v type="int" >        9 </v>
  <v type="int" >       10 </v>
  <v type="int" >       11 </v>
  <v type="int" >       12 </v>
 </varray>
 <kpoints>
  <generation param="Gamma">
   <v type="int" name="divisions">       6        1        5 </v>
   <v name="usershift">      0.00000000       0.00000000       0.00000000 </v>
   <v name="genvec1">      0.16666667       0.00000000       0.00000000 </v>
   <v name="genvec2">      0.00000000       1.00000000       0.00000000 </v>
   <v name="genvec3">      0.00000000       0.00000000       0.20000000 </v>
   <v name="shift">      0.00000000       0.00000000       0.00000000 </v>
  </generation>
  <varray name="kpointlist" >
   <v>       0.00000000       0.00000000       0.00000000 </v>
   <v>       0.16666667       0.00000000       0.00000000 </v>
   <v>       0.33333333       0.00000000       0.00000000 </v>
   <v>       0.50000000       0.00000000       0.00000000 </v>
   <v>       0.00000000       0.00000000       0.20000000 </v>
   <v>       0.16666667       0.00000000       0.20000000 </v>
   <v>       0.33333333       0.00000000       0.20000000 </v>
   <v>       0.50000000       0.00000000       0.20000000 </v>
   <v>       0.00000000       0.00000000       0.40000000 </v>
   <v>       0.16666667       0.00000000       0.40000000 </v>
   <v>       0.33333333       0.00000000       0.40000000 </v>
   <v>       0.50000000       0.00000000       0.40000000 </v>
  </varray>
  <varray name="weights" >
   <v>       0.03333333 </v>
   <v>       0.06666667 </v>
   <v>       0.06666667 </v>
   <v>       0.03333333 </v>
   <v>       0.06666667 </v>
   <v>       0.13333333 </v>
   <v>       0.13333333 </v>
   <v>       0.06666667 </v>
   <v>       0.06666667 </v>
   <v>       0.13333333 </v>
   <v>       0.13333333 </v>
   <v>       0.06666667 </v>
  </varray>
 </kpoints>
 <parameters>
  <separator name="general" >
   <i type="string" name="SYSTEM">Generic Input</i>
   <i type="logical" name="LCOMPAT"> F  </i>
  </separator>
  <separator name="electronic" >
   <i type="string" name="PREC">normal</i>
   <i name="ENMAX">    400.00000000</i>
   <i name="ENAUG">    342.92400000</i>
   <i name="EDIFF">      0.00001000</i>
   <i type="int" name="IALGO">    38</i>
   <i type="int" name="IWAVPR">    11</i>
   <i type="int" name="NBANDS">    40</i>
   <i name="NELECT">     60.00000000</i>
   <i type="int" name="TURBO">     0</i>
   <i type="int" name="IRESTART">     0</i>
   <i type="int" name="NREBOOT">     0</i>
   <i type="int" name="NMIN">     0</i>
   <i name="EREF">      0.00000000</i>
   <separator name="electronic smearing" >
    <i type="int" name="ISMEAR">     0</i>
    <i name="SIGMA">      0.01000000</i>
    <i name="KSPACING">      0.50000000</i>
    <i type="logical" name="KGAMMA"> T  </i>
   </separator>
   <separator name="electronic projectors" >
    <i type="logical" name="LREAL"> F  </i>
    <v name="ROPT">      0.00000000</v>
    <i type="int" name="LMAXPAW">  -100</i>
    <i type="int" name="LMAXMIX">     2</i>
    <i type="logical" name="NLSPLINE"> F  </i>
   </separator>
   <separator name="electronic startup" >
    <i type="int" name="ISTART">     0</i>
    <i type="int" name="ICHARG">     2</i>
    <i type="int" name="INIWAV">     1</i>
   </separator>
   <separator name="electronic spin" >
    <i type="int" name="ISPIN">     1</i>
    <i type="logical" name="LNONCOLLINEAR"> F  </i>
    <v name="MAGMOM">      1.00000000      1.00000000      1.00000000      1.00000000      1.00000000      1.00000000      1.00000000      1.00000000      1.00000000      1.00000000      1.00000000      1.00000000</v>
    <i name="NUPDOWN">     -1.00000000</i>
    <i type="logical" name="LSORBIT"> F  </i>
    <v name="SAXIS">      0.00000000      0.00000000      1.00000000</v>
    <i type="logical" name="LSPIRAL"> F  </i>
    <v name="QSPIRAL">      0.00000000      0.00000000      0.00000000</v>
    <i type="logical" name="LZEROZ"> F  </i>
   </separator>
   <separator name="electronic exchange-correlation" >
    <i type="logical" name="LASPH"> T  </i>
    <i type="logical" name="LMETAGGA"> F  </i>
   </separator>
   <separator name="electronic convergence" >
    <i type="int" name="NELM">   200</i>
    <i type="int" name="NELMDL">     0</i>
    <i type="int" name="NELMIN">     2</i>
    <i name="ENINI">    400.00000000</i>
    <separator name="electronic convergence detail" >
     <i type="logical" name="LDIAG"> T  </i>
     <i type="logical" name="LSUBROT"> F  </i>
     <i name="WEIMIN">      0.00000000</i>
     <i name="EBREAK">      0.00000006</i>
     <i name="DEPER">      0.30000000</i>
     <i type="int" name="NRMM">     4</i>
     <i name="TIME">      0.40000000</i>
    </separator>
   </separator>
   <separator name="electronic mixer" >
    <i name="AMIX">      0.40000000</i>
    <i name="BMIX">      1.00000000</i>
    <i name="AMIN">      0.10000000</i>
    <i name="AMIX_MAG">      1.60000000</i>
    <i name="BMIX_MAG">      1.00000000</i>
    <separator name="electronic mixer details" >
     <i type="int" name="IMIX">     4</i>
     <i type="logical" name="MIXFIRST"> F  </i>
     <i type="int" name="MAXMIX">   -45</i>
     <i name="WC">    100.00000000</i>
     <i type="int" name="INIMIX">     1</i>
     <i type="int" name="MIXPRE">     1</i>
     <i type="int" name="MREMOVE">     5</i>
    </separator>
   </separator>
   <separator name="electronic dipolcorrection" >
    <i type="logical" name="LDIPOL"> F  </i>
    <i type="logical" name="LMONO"> F  </i>
    <i type="int" name="IDIPOL">     0</i>
    <i name="EPSILON">      1.00000000</i>
    <v name="DIPOL">   -100.00000000   -100.00000000   -100.00000000</v>
    <i name="EFIELD">      0.00000000</i>
   </separator>
  </separator>
  <separator name="grids" >
   <i type="int" name="NGX">    16</i>
   <i type="int" name="NGY">   160</i>
   <i type="int" name="NGZ">    24</i>
   <i type="int" name="NGXF">    32</i>
   <i type="int" name="NGYF">   320</i>
   <i type="int" name="NGZF">    48</i>
   <i type="logical" name="ADDGRID"> F  </i>
  </separator>
  <separator name="ionic" >
   <i type="int" name="NSW">     0</i>
   <i type="int" name="IBRION">    -1</i>
   <i type="int" name="MDALGO">     0</i>
   <i type="int" name="ISIF">     3</i>
   <i name="PSTRESS">      0.00000000</i>
   <i name="EDIFFG">     -0.02000000</i>
   <i type="int" name="NFREE">     1</i>
   <i name="POTIM">      0.50000000</i>
   <i name="SMASS">     -3.00000000</i>
   <i name="SCALEE">      1.00000000</i>
  </separator>
  <separator name="ionic md" >
   <i name="TEBEG">      0.00010000</i>
   <i name="TEEND">      0.00010000</i>
   <i type="int" name="NBLOCK">     1</i>
   <i type="int" name="KBLOCK">     1</i>
   <i type="int" name="NPACO">   256</i>
   <i name="APACO">     16.00000000</i>
  </separator>
  <separator name="symmetry" >
   <i type="int" name="ISYM">     2</i>
   <i name="SYMPREC">      0.00001000</i>
  </separator>
  <separator name="dos" >
   <i type="int" name="LORBIT">    11</i>
   <v name="RWIGS">     -1.00000000</v>
   <i type="int" name="NEDOS">  2000</i>
   <i name="EMIN">     10.00000000</i>
   <i name="EMAX">    -10.00000000</i>
   <i name="EFERMI">      0.00000000</i>
  </separator>
  <separator name="writing" >
   <i type="int" name="NWRITE">     2</i>
   <i type="logical" name="LWAVE"> T  </i>
   <i type="logical" name="LDOWNSAMPLE"> F  </i>
   <i type="logical" name="LCHARG"> T  </i>
   <i type="logical" name="LPARD"> F  </i>
   <i type="logical" name="LVTOT"> F  </i>
   <i type="logical" name="LVHAR"> T  </i>
   <i type="logical" name="LELF"> F  </i>
   <i type="logical" name="LOPTICS"> F  </i>
   <v name="STM">      0.00000000      0.00000000      0.00000000      0.00000000      0.00000000      0.00000000      0.00000000</v>
  </separator>
  <separator name="performance" >
   <i type="int" name="NPAR">     4</i>
   <i type="int" name="NSIM">     4</i>
   <i type="int" name="NBLK">    -1</i>
   <i type="logical" name="LPLANE"> T  </i>
   <i type="logical" name="LSCALAPACK"> T  </i>
   <i type="logical" name="LSCAAWARE"> F  </i>
   <i type="logical" name="LSCALU"> F  </i>
   <i type="logical" name="LASYNC"> F  </i>
   <i type="logical" name="LORBITALREAL"> F  </i>
  </separator>
  <separator name="miscellaneous" >
   <i type="int" name="IDIOT">     3</i>
   <i type="int" name="ISPECIAL">     0</i>
   <i type="logical" name="LMUSIC"> F  </i>
   <v name="POMASS">     30.97400000</v>
   <v name="DARWINR">      0.00000000</v>
   <v name="DARWINV">      1.00000000</v>
   <i type="logical" name="LCORR"> T  </i>
  </separator>
  <i type="logical" name="GGA_COMPAT"> T  </i>
  <i type="logical" name="LBERRY"> F  </i>
  <i type="int" name="ICORELEVEL">     1</i>
  <i type="int" name="CLNT">     1</i>
  <i type="int" name="CLN">     1</i>
  <i type="int" name="CLL">     0</i>
  <i name="CLZ">      0.00000000</i>
  <i type="logical" name="LDAU"> F  </i>
  <i type="int" name="I_CONSTRAINED_M">     0</i>
  <separator name="electronic exchange-correlation" >
   <i type="string" name="GGA">PE</i>
   <i type="int" name="VOSKOWN">     0</i>
   <i type="logical" name="LHFCALC"> F  </i>
   <i type="string" name="PRECFOCK"></i>
   <i type="logical" name="LSYMGRAD"> F  </i>
   <i type="logical" name="LHFONE"> F  </i>
   <i type="logical" name="LRHFCALC"> F  </i>
   <i type="logical" name="LTHOMAS"> F  </i>
   <i type="logical" name="LMODELHF"> F  </i>
   <i name="ENCUT4O">     -1.00000000</i>
   <i type="int" name="EXXOEP">     0</i>
   <i type="int" name="FOURORBIT">     0</i>
   <i name="AEXX">      0.00000000</i>
   <i name="HFALPHA">      0.00000000</i>
   <i name="MCALPHA">      0.00000000</i>
   <i name="ALDAX">      1.00000000</i>
   <i name="AGGAX">      1.00000000</i>
   <i name="ALDAC">      1.00000000</i>
   <i name="AGGAC">      1.00000000</i>
   <i type="int" name="NKREDX">     1</i>
   <i type="int" name="NKREDY">     1</i>
   <i type="int" name="NKREDZ">     1</i>
   <i type="logical" name="SHIFTRED"> F  </i>
   <i type="logical" name="ODDONLY"> F  </i>
   <i type="logical" name="EVENONLY"> F  </i>
   <i type="int" name="LMAXFOCK">     0</i>
   <i type="int" name="NMAXFOCKAE">     0</i>
   <i type="logical" name="LFOCKAEDFT"> F  </i>
   <i name="HFSCREEN">      0.00000000</i>
   <i name="HFSCREENC">      0.00000000</i>
   <i type="int" name="NBANDSGWLOW">     0</i>
  </separator>
  <separator name="vdW DFT" >
   <i type="logical" name="LUSE_VDW"> F  </i>
   <i name="Zab_VDW">     -0.84910000</i>
   <i name="PARAM1">      0.12340000</i>
   <i name="PARAM2">      1.00000000</i>
   <i name="PARAM3">      0.00000000</i>
  </separator>
  <separator name="model GW" >
   <i type="int" name="MODEL_GW">     0</i>
   <i name="MODEL_EPS0">     23.83979645</i>
   <i name="MODEL_ALPHA">      1.00000000</i>
  </separator>
  <separator name="linear response parameters" >
   <i type="logical" name="LEPSILON"> F  </i>
   <i type="logical" name="LRPA"> F  </i>
   <i type="logical" name="LNABLA"> F  </i>
   <i type="logical" name="LVEL"> F  </i>
   <i type="int" name="KINTER">     0</i>
   <i name="CSHIFT">      0.10000000</i>
   <i name="OMEGAMAX">     -1.00000000</i>
   <i name="DEG_THRESHOLD">      0.00200000</i>
   <i name="RTIME">     -0.10000000</i>
   <i name="WPLASMAI">      0.00000000</i>
   <v name="DFIELD">      0.00000000      0.00000000      0.00000000</v>
   <v name="WPLASMA">      0.00000000      0.00000000      0.00000000      0.00000000      0.00000000      0.00000000      0.00000000      0.00000000      0.00000000</v>
  </separator>
  <separator name="orbital magnetization" >
   <i type="logical" name="NUCIND"> F  </i>
   <v name="MAGPOS">      0.00000000      0.00000000      0.00000000</v>
   <i type="logical" name="LNICSALL"> T  </i>
   <i type="logical" name="ORBITALMAG"> F  </i>
   <i type="logical" name="LMAGBLOCH"> F  </i>
   <i type="logical" name="LCHIMAG"> F  </i>
   <i type="logical" name="LGAUGE"> T  </i>
   <i type="int" name="MAGATOM">     0</i>
   <v name="MAGDIPOL">      0.00000000      0.00000000      0.00000000</v>
   <v name="AVECCONST">      0.00000000      0.00000000      0.00000000</v>
  </separator>
  <separator name="response functions" >
   <i type="logical" name="LADDER"> F  </i>
   <i type="logical" name="LRPAFORCE"> F  </i>
   <i type="logical" name="LFXC"> F  </i>
   <i type="logical" name="LHARTREE"> T  </i>
   <i type="int" name="IBSE">     0</i>
   <v type="int" name="KPOINT">    -1     0     0     0</v>
   <i type="logical" name="LTCTE"> F  </i>
   <i type="logical" name="LTETE"> F  </i>
   <i type="logical" name="LTRIPLET"> F  </i>
   <i type="logical" name="LFXCEPS"> F  </i>
   <i type="logical" name="LFXHEG"> F  </i>
   <i type="int" name="NATURALO">     2</i>
   <i type="logical" name="L2ORDER"> F  </i>
   <i type="logical" name="LMP2LT"> F  </i>
   <i type="logical" name="LUSEW"> F  </i>
   <i name="ENCUTGW">     -2.00000000</i>
   <i name="ENCUTGWSOFT">     -2.00000000</i>
   <i name="ENCUTLF">     -1.00000000</i>
   <i type="int" name="LMAXMP2">    -1</i>
   <i name="SCISSOR">      0.00000000</i>
   <i type="int" name="NOMEGA">     0</i>
   <i type="int" name="NOMEGAR">     0</i>
   <i type="int" name="NBANDSGW">    -1</i>
   <i type="int" name="NBANDSO">    -1</i>
   <i type="int" name="NBANDSV">    -1</i>
   <i type="int" name="NELM">   200</i>
   <i type="int" name="NELMHF">     1</i>
   <i type="int" name="DIM">     3</i>
   <i type="int" name="ANTIRES">     0</i>
   <i name="OMEGAMAX">    -30.00000000</i>
   <i name="OMEGAMIN">    -30.00000000</i>
   <i name="OMEGATL">   -200.00000000</i>
   <i type="int" name="OMEGAGRID">   140</i>
   <i name="CSHIFT">     -0.10000000</i>
   <i type="logical" name="SELFENERGY"> F  </i>
   <i type="logical" name="LSPECTRAL"> F  </i>
   <i type="logical" name="LSPECTRALGW"> F  </i>
   <i type="logical" name="LSINGLES"> F  </i>
   <i type="logical" name="LFERMIGW"> F  </i>
   <i type="logical" name="ODDONLYGW"> F  </i>
   <i type="logical" name="EVENONLYGW"> F  </i>
   <i type="int" name="NKREDLFX">     1</i>
   <i type="int" name="NKREDLFY">     1</i>
   <i type="int" name="NKREDLFZ">     1</i>
   <i type="int" name="MAXMEM">  2800</i>
   <i type="int" name="TELESCOPE">     0</i>
   <i type="int" name="TAUPAR">     1</i>
   <i type="int" name="OMEGAPAR">    -1</i>
   <i name="LAMBDA">      1.00000000</i>
  </separator>
  <separator name="External order field" >
   <i name="OFIELD_KAPPA">      0.00000000</i>
   <v name="OFIELD_K">      0.00000000      0.00000000      0.00000000</v>
   <i name="OFIELD_Q6_NEAR">      0.00000000</i>
   <i name="OFIELD_Q6_FAR">      0.00000000</i>
   <i name="OFIELD_A">      0.00000000</i>
  </separator>
 </parameters>
 <atominfo>
  <atoms>      12 </atoms>
  <types>       1 </types>
  <array name="atoms" >
   <dimension dim="1">ion</dimension>
   <field type="string">element</field>
   <field type="int">atomtype</field>
   <set>
    <rc><c>P </c><c>   1</c></rc>
    <rc><c>P </c><c>   1</c></rc>
    <rc><c>P </c><c>   1</c></rc>
    <rc><c>P </c><c>   1</c></rc>
    <rc><c>P </c><c>   1</c></rc>
    <rc><c>P </c><c>   1</c></rc>
    <rc><c>P </c><c>   1</c></rc>
    <rc><c>P </c><c>   1</c></rc>
    <rc><c>P </c><c>   1</c></rc>
    <rc><c>P </c><c>   1</c></rc>
    <rc><c>P </c><c>   1</c></rc>
    <rc><c>P </c><c>   1</c></rc>
   </set>
  </array>
  <array name="atomtypes" >
   <dimension dim="1">type</dimension>
   <field type="int">atomspertype</field>
   <field type="string">element</field>
   <field>mass</field>
   <field>valence</field>
   <field type="string">pseudopotential</field>
   <set>
    <rc><c>  12</c><c>P </c><c>     30.97400000</c><c>      5.00000000</c><c>  PAW_PBE P 06Sep2000                   </c></rc>
   </set>
  </array>
 </atominfo>
 <structure name="initialpos" >
  <crystal>
   <varray name="basis" >
    <v>       3.34288600       0.00000000       0.00000000 </v>
    <v>       0.00000000      32.60240900       0.00000000 </v>
    <v>       0.00000000       0.00000000       4.37483100 </v>
   </varray>
   <i name="volume">    476.79592902 </i>
   <varray name="rec_basis" >
    <v>       0.29914272       0.00000000       0.00000000 </v>
    <v>       0.00000000       0.03067258       0.00000000 </v>
    <v>       0.00000000       0.00000000       0.22858026 </v>
   </varray>
  </crystal>
  <varray name="positions" >
   <v>       0.00000000       0.30672600       0.91892400 </v>
   <v>       0.50000000       0.30672600       0.58107600 </v>
   <v>       0.00000000       0.37246700       0.08107600 </v>
   <v>       0.50000000       0.37246700       0.41892400 </v>
   <v>       0.50000000       0.46712900       0.91892400 </v>
   <v>       0.00000000       0.46712900       0.58107600 </v>
   <v>       0.50000000       0.53287100       0.08107600 </v>
   <v>       0.00000000       0.53287100       0.41892400 </v>
   <v>       0.00000000       0.62753300       0.91892400 </v>
   <v>       0.50000000       0.62753300       0.58107600 </v>
   <v>       0.00000000       0.69327400       0.08107600 </v>
   <v>       0.50000000       0.69327400       0.41892400 </v>
  </varray>
 </structure>
 <calculation>
  <scstep>
   <time name="dav">    0.52    0.52</time>
   <time name="total">    0.61    0.63</time>
   <energy>
    <i name="alphaZ">     30.28014394 </i>
    <i name="ewald">  14973.24208224 </i>
    <i name="hartreedc"> -16928.93300519 </i>
    <i name="XCdc">     40.33410248 </i>
    <i name="pawpsdc">   1677.12035881 </i>
    <i name="pawaedc">  -1579.18296132 </i>
    <i name="eentropy">     -0.00048724 </i>
    <i name="bandstr">     12.97398244 </i>
    <i name="atom">   2112.48864025 </i>
    <i name="e_fr_energy">    338.32285640 </i>
    <i name="e_wo_entrp">    338.32334364 </i>
    <i name="e_0_energy">    338.32310002 </i>
   </energy>
  </scstep>
  <scstep>
   <time name="dav">    0.64    0.64</time>
   <time name="total">    0.64    0.64</time>
   <energy>
    <i name="e_fr_energy">    -26.53330906 </i>
    <i name="e_wo_entrp">    -26.53330906 </i>
    <i name="e_0_energy">    -26.53330906 </i>
   </energy>
  </scstep>
  <scstep>
   <time name="dav">    0.59    0.59</time>
   <time name="total">    0.59    0.59</time>
   <energy>
    <i name="e_fr_energy">    -63.35926702 </i>
    <i name="e_wo_entrp">    -63.35926702 </i>
    <i name="e_0_energy">    -63.35926702 </i>
   </energy>
  </scstep>
  <scstep>
   <time name="dav">    0.68    0.69</time>
   <time name="total">    0.68    0.69</time>
   <energy>
    <i name="e_fr_energy">    -64.78152685 </i>
    <i name="e_wo_entrp">    -64.78152685 </i>
    <i name="e_0_energy">    -64.78152685 </i>
   </energy>
  </scstep>
  <scstep>
   <time name="dav">    0.67    0.67</time>
   <time name="total">    0.70    0.70</time>
   <energy>
    <i name="e_fr_energy">    -64.82210738 </i>
    <i name="e_wo_entrp">    -64.82210738 </i>
    <i name="e_0_energy">    -64.82210738 </i>
   </energy>
  </scstep>
  <scstep>
   <time name="dav">    0.61    0.61</time>
   <time name="total">    0.72    0.72</time>
   <energy>
    <i name="e_fr_energy">    -64.49804513 </i>
    <i name="e_wo_entrp">    -64.49804513 </i>
    <i name="e_0_energy">    -64.49804513 </i>
   </energy>
  </scstep>
  <scstep>
   <time name="dav">    0.58    0.59</time>
   <time name="total">    0.69    0.69</time>
   <energy>
    <i name="e_fr_energy">    -64.35010347 </i>
    <i name="e_wo_entrp">    -64.35010331 </i>
    <i name="e_0_energy">    -64.35010339 </i>
   </energy>
  </scstep>
  <scstep>
   <time name="dav">    0.61    0.61</time>
   <time name="total">    0.72    0.72</time>
   <energy>
    <i name="e_fr_energy">    -64.34983048 </i>
    <i name="e_wo_entrp">    -64.34983044 </i>
    <i name="e_0_energy">    -64.34983046 </i>
   </energy>
  </scstep>
  <scstep>
   <time name="dav">    0.69    0.69</time>
   <time name="total">    0.80    0.80</time>
   <energy>
    <i name="e_fr_energy">    -64.34980821 </i>
    <i name="e_wo_entrp">    -64.34980817 </i>
    <i name="e_0_energy">    -64.34980819 </i>
   </energy>
  </scstep>
  <scstep>
   <time name="dav">    0.60    0.60</time>
   <time name="total">    0.71    0.71</time>
   <energy>
    <i name="e_fr_energy">    -64.34956473 </i>
    <i name="e_wo_entrp">    -64.34956471 </i>
    <i name="e_0_energy">    -64.34956472 </i>
   </energy>
  </scstep>
  <scstep>
   <time name="dav">    0.63    0.64</time>
   <time name="total">    0.74    0.74</time>
   <energy>
    <i name="e_fr_energy">    -64.34933644 </i>
    <i name="e_wo_entrp">    -64.34933640 </i>
    <i name="e_0_energy">    -64.34933642 </i>
   </energy>
  </scstep>
  <scstep>
   <time name="dav">    0.59    0.59</time>
   <time name="total">    0.70    0.70</time>
   <energy>
    <i name="e_fr_energy">    -64.34944320 </i>
    <i name="e_wo_entrp">    -64.34944316 </i>
    <i name="e_0_energy">    -64.34944318 </i>
   </energy>
  </scstep>
  <scstep>
   <time name="dav">    0.57    0.57</time>
   <time name="total">    0.68    0.68</time>
   <energy>
    <i name="e_fr_energy">    -64.34965876 </i>
    <i name="e_wo_entrp">    -64.34965873 </i>
    <i name="e_0_energy">    -64.34965874 </i>
   </energy>
  </scstep>
  <scstep>
   <time name="dav">    0.48    0.48</time>
   <time name="total">    0.59    0.60</time>
   <energy>
    <i name="e_fr_energy">    -64.34974315 </i>
    <i name="e_wo_entrp">    -64.34974311 </i>
    <i name="e_0_energy">    -64.34974313 </i>
   </energy>
  </scstep>
  <scstep>
   <time name="dav">    0.48    0.48</time>
   <time name="total">    0.58    0.59</time>
   <energy>
    <i name="e_fr_energy">    -64.34990538 </i>
    <i name="e_wo_entrp">    -64.34990534 </i>
    <i name="e_0_energy">    -64.34990536 </i>
   </energy>
  </scstep>
  <scstep>
   <time name="dav">    0.53    0.53</time>
   <time name="total">    0.64    0.64</time>
   <energy>
    <i name="e_fr_energy">    -64.35004933 </i>
    <i name="e_wo_entrp">    -64.35004928 </i>
    <i name="e_0_energy">    -64.35004930 </i>
   </energy>
  </scstep>
  <scstep>
   <time name="dav">    0.47    0.47</time>
   <time name="total">    0.63    0.64</time>
   <energy>
    <i name="alphaZ">     30.28014394 </i>
    <i name="ewald">  14973.24208224 </i>
    <i name="hartreedc"> -16968.04430085 </i>
    <i name="XCdc">     43.13201035 </i>
    <i name="pawpsdc">   6278.23089088 </i>
    <i name="pawaedc">  -6181.21030379 </i>
    <i name="eentropy">     -0.00000004 </i>
    <i name="bandstr">   -352.46921639 </i>
    <i name="atom">   2112.48864025 </i>
    <i name="e_fr_energy">    -64.35005342 </i>
    <i name="e_wo_entrp">    -64.35005337 </i>
    <i name="e_0_energy">    -64.35005340 </i>
   </energy>
  </scstep>
  <structure>
   <crystal>
    <varray name="basis" >
     <v>       3.34288600       0.00000000       0.00000000 </v>
     <v>       0.00000000      32.60240900       0.00000000 </v>
     <v>       0.00000000       0.00000000       4.37483100 </v>
    </varray>
    <i name="volume">    476.79592902 </i>
    <varray name="rec_basis" >
     <v>       0.29914272       0.00000000       0.00000000 </v>
     <v>       0.00000000       0.03067258       0.00000000 </v>
     <v>       0.00000000       0.00000000       0.22858026 </v>
    </varray>
   </crystal>
   <varray name="positions" >
    <v>       0.00000000       0.30672600       0.91892400 </v>
    <v>       0.50000000       0.30672600       0.58107600 </v>
    <v>       0.00000000       0.37246700       0.08107600 </v>
    <v>       0.50000000       0.37246700       0.41892400 </v>
    <v>       0.50000000       0.46712900       0.91892400 </v>
    <v>       0.00000000       0.46712900       0.58107600 </v>
    <v>       0.50000000       0.53287100       0.08107600 </v>
    <v>       0.00000000       0.53287100       0.41892400 </v>
    <v>       0.00000000       0.62753300       0.91892400 </v>
    <v>       0.50000000       0.62753300       0.58107600 </v>
    <v>       0.00000000       0.69327400       0.08107600 </v>
    <v>       0.50000000       0.69327400       0.41892400 </v>
   </varray>
  </structure>
  <varray name="forces" >
   <v>      -0.00000000       0.08063789      -0.05483363 </v>
   <v>       0.00000000       0.08063789       0.05483363 </v>
   <v>       0.00000000      -0.07899205      -0.00431062 </v>
   <v>       0.00000000      -0.07899205       0.00431062 </v>
   <v>       0.00000000       0.04174089      -0.01196985 </v>
   <v>       0.00000000       0.04174089       0.01196985 </v>
   <v>       0.00000000      -0.04174089       0.01196985 </v>
   <v>       0.00000000      -0.04174089      -0.01196985 </v>
   <v>      -0.00000000       0.07899205       0.00431062 </v>
   <v>       0.00000000       0.07899205      -0.00431062 </v>
   <v>       0.00000000      -0.08063789       0.05483363 </v>
   <v>      -0.00000000      -0.08063789      -0.05483363 </v>
  </varray>
  <varray name="stress" >
   <v>       0.25304612       0.00000000       0.00000000 </v>
   <v>       0.00000000      -3.03059263       0.00000000 </v>
   <v>       0.00000000       0.00000000       3.88616622 </v>
  </varray>
  <energy>
   <i name="e_fr_energy">    -66.52399294 </i>
   <i name="e_wo_entrp">    -66.52399292 </i>
   <i name="e_0_energy">     -0.00000004 </i>
  </energy>
  <time name="totalsc">   12.96   13.02</time>
  <eigenvalues>
   <array>
    <dimension dim="1">band</dimension>
    <dimension dim="2">kpoint</dimension>
    <dimension dim="3">spin</dimension>
    <field>eigene</field>
    <field>occ</field>
    <set>
     <set comment="spin 1">
      <set comment="kpoint 1">
       <r>  -14.8554    1.0000 </r>
       <r>  -14.7352    1.0000 </r>
       <r>  -14.6664    1.0000 </r>
       <r>  -12.3757    1.0000 </r>
       <r>  -12.1297    1.0000 </r>
       <r>  -11.9497    1.0000 </r>
       <r>   -8.6071    1.0000 </r>
       <r>   -8.5233    1.0000 </r>
       <r>   -8.4929    1.0000 </r>
       <r>   -5.9265    1.0000 </r>
       <r>   -5.5474    1.0000 </r>
       <r>   -5.1289    1.0000 </r>
       <r>   -4.5087    1.0000 </r>
       <r>   -4.5066    1.0000 </r>
       <r>   -4.1913    1.0000 </r>
       <r>   -4.1448    1.0000 </r>
       <r>   -3.9972    1.0000 </r>
       <r>   -3.9252    1.0000 </r>
       <r>   -3.3948    1.0000 </r>
       <r>   -3.2941    1.0000 </r>
       <r>   -3.2442    1.0000 </r>
       <r>   -1.8823    1.0000 </r>
       <r>   -1.7382    1.0000 </r>
       <r>   -1.6278    1.0000 </r>
       <r>   -1.5912    1.0000 </r>
       <r>   -1.5060    1.0000 </r>
       <r>   -1.1110    1.0000 </r>
       <r>   -0.2529    1.0000 </r>
       <r>    0.3509    1.0000 </r>
       <r>    0.9063    1.0000 </r>
       <r>    0.9665    0.0000 </r>
       <r>    1.4943    0.0000 </r>
       <r>    1.5214    0.0000 </r>
       <r>    1.6946    0.0000 </r>
       <r>    1.7036    0.0000 </r>
       <r>    1.8595    0.0000 </r>
       <r>    2.7285    0.0000 </r>
       <r>    2.8992    0.0000 </r>
       <r>    2.9702    0.0000 </r>
       <r>    3.7115    0.0000 </r>
      </set>
      <set comment="kpoint 2">
       <r>  -14.5319    1.0000 </r>
       <r>  -14.4129    1.0000 </r>
       <r>  -14.3453    1.0000 </r>
       <r>  -12.0390    1.0000 </r>
       <r>  -11.7944    1.0000 </r>
       <r>  -11.6155    1.0000 </r>
       <r>   -8.8997    1.0000 </r>
       <r>   -8.8390    1.0000 </r>
       <r>   -8.8329    1.0000 </r>
       <r>   -5.6535    1.0000 </r>
       <r>   -5.2820    1.0000 </r>
       <r>   -4.9754    1.0000 </r>
       <r>   -4.8944    1.0000 </r>
       <r>   -4.8866    1.0000 </r>
       <r>   -4.8565    1.0000 </r>
       <r>   -4.4296    1.0000 </r>
       <r>   -4.3562    1.0000 </r>
       <r>   -4.3456    1.0000 </r>
       <r>   -4.2205    1.0000 </r>
       <r>   -3.8761    1.0000 </r>
       <r>   -3.7317    1.0000 </r>
       <r>   -2.6636    1.0000 </r>
       <r>   -2.5134    1.0000 </r>
       <r>   -2.3481    1.0000 </r>
       <r>   -1.7443    1.0000 </r>
       <r>   -1.4735    1.0000 </r>
       <r>   -0.9711    1.0000 </r>
       <r>   -0.2171    1.0000 </r>
       <r>    0.1833    1.0000 </r>
       <r>    0.4536    1.0000 </r>
       <r>    1.2498    0.0000 </r>
       <r>    1.6546    0.0000 </r>
       <r>    1.8788    0.0000 </r>
       <r>    2.3374    0.0000 </r>
       <r>    2.5493    0.0000 </r>
       <r>    2.5740    0.0000 </r>
       <r>    3.7487    0.0000 </r>
       <r>    3.8743    0.0000 </r>
       <r>    3.9790    0.0000 </r>
       <r>    4.3127    0.0000 </r>
      </set>
      <set comment="kpoint 3">
       <r>  -13.5788    1.0000 </r>
       <r>  -13.4639    1.0000 </r>
       <r>  -13.4007    1.0000 </r>
       <r>  -11.0374    1.0000 </r>
       <r>  -10.7975    1.0000 </r>
       <r>  -10.6223    1.0000 </r>
       <r>  -10.2423    1.0000 </r>
       <r>  -10.1633    1.0000 </r>
       <r>  -10.1382    1.0000 </r>
       <r>   -7.2236    1.0000 </r>
       <r>   -7.0273    1.0000 </r>
       <r>   -6.8890    1.0000 </r>
       <r>   -4.9325    1.0000 </r>
       <r>   -4.9066    1.0000 </r>
       <r>   -4.8505    1.0000 </r>
       <r>   -4.8414    1.0000 </r>
       <r>   -4.6069    1.0000 </r>
       <r>   -4.3172    1.0000 </r>
       <r>   -3.4277    1.0000 </r>
       <r>   -3.1585    1.0000 </r>
       <r>   -3.0355    1.0000 </r>
       <r>   -2.6884    1.0000 </r>
       <r>   -2.3989    1.0000 </r>
       <r>   -2.1642    1.0000 </r>
       <r>   -1.7932    1.0000 </r>
       <r>   -1.5245    1.0000 </r>
       <r>   -1.1929    1.0000 </r>
       <r>   -0.8963    1.0000 </r>
       <r>   -0.7565    1.0000 </r>
       <r>   -0.6931    1.0000 </r>
       <r>    1.1092    0.0000 </r>
       <r>    1.1703    0.0000 </r>
       <r>    1.4324    0.0000 </r>
       <r>    2.0708    0.0000 </r>
       <r>    2.2835    0.0000 </r>
       <r>    2.6010    0.0000 </r>
       <r>    2.6432    0.0000 </r>
       <r>    2.6604    0.0000 </r>
       <r>    2.6670    0.0000 </r>
       <r>    2.9523    0.0000 </r>
      </set>
      <set comment="kpoint 4">
       <r>  -12.0682    1.0000 </r>
       <r>  -12.0682    1.0000 </r>
       <r>  -11.9634    1.0000 </r>
       <r>  -11.9634    1.0000 </r>
       <r>  -11.9108    1.0000 </r>
       <r>  -11.9108    1.0000 </r>
       <r>   -9.4021    1.0000 </r>
       <r>   -9.4021    1.0000 </r>
       <r>   -9.1732    1.0000 </r>
       <r>   -9.1732    1.0000 </r>
       <r>   -9.0069    1.0000 </r>
       <r>   -9.0069    1.0000 </r>
       <r>   -4.4706    1.0000 </r>
       <r>   -4.4706    1.0000 </r>
       <r>   -4.3363    1.0000 </r>
       <r>   -4.3363    1.0000 </r>
       <r>   -4.2906    1.0000 </r>
       <r>   -4.2906    1.0000 </r>
       <r>   -2.4692    1.0000 </r>
       <r>   -2.4692    1.0000 </r>
       <r>   -2.3960    1.0000 </r>
       <r>   -2.3960    1.0000 </r>
       <r>   -2.3957    1.0000 </r>
       <r>   -2.3957    1.0000 </r>
       <r>   -2.0135    1.0000 </r>
       <r>   -2.0135    1.0000 </r>
       <r>   -1.7429    1.0000 </r>
       <r>   -1.7429    1.0000 </r>
       <r>   -1.4908    1.0000 </r>
       <r>   -1.4908    1.0000 </r>
       <r>    1.6170    0.0000 </r>
       <r>    1.6170    0.0000 </r>
       <r>    1.6297    0.0000 </r>
       <r>    1.6297    0.0000 </r>
       <r>    1.7116    0.0000 </r>
       <r>    1.7116    0.0000 </r>
       <r>    2.1531    0.0000 </r>
       <r>    2.1534    0.0000 </r>
       <r>    2.1892    0.0000 </r>
       <r>    2.1898    0.0000 </r>
      </set>
      <set comment="kpoint 5">
       <r>  -14.6290    1.0000 </r>
       <r>  -14.5132    1.0000 </r>
       <r>  -14.4491    1.0000 </r>
       <r>  -12.5043    1.0000 </r>
       <r>  -12.3345    1.0000 </r>
       <r>  -12.2382    1.0000 </r>
       <r>   -8.9150    1.0000 </r>
       <r>   -8.8052    1.0000 </r>
       <r>   -8.7320    1.0000 </r>
       <r>   -6.5042    1.0000 </r>
       <r>   -6.2829    1.0000 </r>
       <r>   -6.2164    1.0000 </r>
       <r>   -4.5607    1.0000 </r>
       <r>   -4.2231    1.0000 </r>
       <r>   -3.6563    1.0000 </r>
       <r>   -3.4669    1.0000 </r>
       <r>   -3.2151    1.0000 </r>
       <r>   -3.1196    1.0000 </r>
       <r>   -3.0860    1.0000 </r>
       <r>   -3.0843    1.0000 </r>
       <r>   -3.0752    1.0000 </r>
       <r>   -1.8143    1.0000 </r>
       <r>   -1.6984    1.0000 </r>
       <r>   -1.6445    1.0000 </r>
       <r>   -1.3713    1.0000 </r>
       <r>   -0.7455    1.0000 </r>
       <r>   -0.6506    1.0000 </r>
       <r>   -0.5736    1.0000 </r>
       <r>   -0.3060    1.0000 </r>
       <r>   -0.1256    1.0000 </r>
       <r>    1.5727    0.0000 </r>
       <r>    1.9134    0.0000 </r>
       <r>    2.0046    0.0000 </r>
       <r>    2.0684    0.0000 </r>
       <r>    2.3817    0.0000 </r>
       <r>    2.3904    0.0000 </r>
       <r>    2.4722    0.0000 </r>
       <r>    2.4745    0.0000 </r>
       <r>    2.8675    0.0000 </r>
       <r>    3.4514    0.0000 </r>
      </set>
      <set comment="kpoint 6">
       <r>  -14.3085    1.0000 </r>
       <r>  -14.1939    1.0000 </r>
       <r>  -14.1310    1.0000 </r>
       <r>  -12.1819    1.0000 </r>
       <r>  -12.0165    1.0000 </r>
       <r>  -11.9246    1.0000 </r>
       <r>   -9.0197    1.0000 </r>
       <r>   -8.9085    1.0000 </r>
       <r>   -8.8376    1.0000 </r>
       <r>   -6.4131    1.0000 </r>
       <r>   -6.2305    1.0000 </r>
       <r>   -6.1488    1.0000 </r>
       <r>   -4.9924    1.0000 </r>
       <r>   -4.8549    1.0000 </r>
       <r>   -4.7210    1.0000 </r>
       <r>   -4.6383    1.0000 </r>
       <r>   -4.2172    1.0000 </r>
       <r>   -3.8365    1.0000 </r>
       <r>   -3.1689    1.0000 </r>
       <r>   -3.1013    1.0000 </r>
       <r>   -2.9156    1.0000 </r>
       <r>   -2.7438    1.0000 </r>
       <r>   -2.5083    1.0000 </r>
       <r>   -2.5037    1.0000 </r>
       <r>   -1.1971    1.0000 </r>
       <r>   -0.9631    1.0000 </r>
       <r>   -0.8384    1.0000 </r>
       <r>   -0.7093    1.0000 </r>
       <r>   -0.4932    1.0000 </r>
       <r>   -0.1804    1.0000 </r>
       <r>    1.8011    0.0000 </r>
       <r>    2.0631    0.0000 </r>
       <r>    2.3767    0.0000 </r>
       <r>    2.6106    0.0000 </r>
       <r>    2.8372    0.0000 </r>
       <r>    3.0003    0.0000 </r>
       <r>    3.4983    0.0000 </r>
       <r>    3.6109    0.0000 </r>
       <r>    3.7310    0.0000 </r>
       <r>    4.3042    0.0000 </r>
      </set>
      <set comment="kpoint 7">
       <r>  -13.3692    1.0000 </r>
       <r>  -13.2592    1.0000 </r>
       <r>  -13.2010    1.0000 </r>
       <r>  -11.3063    1.0000 </r>
       <r>  -11.1744    1.0000 </r>
       <r>  -11.1154    1.0000 </r>
       <r>   -9.9100    1.0000 </r>
       <r>   -9.7627    1.0000 </r>
       <r>   -9.6619    1.0000 </r>
       <r>   -7.4084    1.0000 </r>
       <r>   -7.2896    1.0000 </r>
       <r>   -7.2352    1.0000 </r>
       <r>   -5.6704    1.0000 </r>
       <r>   -5.5309    1.0000 </r>
       <r>   -5.4190    1.0000 </r>
       <r>   -4.7898    1.0000 </r>
       <r>   -4.5966    1.0000 </r>
       <r>   -4.5917    1.0000 </r>
       <r>   -3.1753    1.0000 </r>
       <r>   -3.1497    1.0000 </r>
       <r>   -3.0509    1.0000 </r>
       <r>   -2.5159    1.0000 </r>
       <r>   -2.4928    1.0000 </r>
       <r>   -2.4351    1.0000 </r>
       <r>   -2.1552    1.0000 </r>
       <r>   -1.8229    1.0000 </r>
       <r>   -1.3454    1.0000 </r>
       <r>   -0.8796    1.0000 </r>
       <r>   -0.7027    1.0000 </r>
       <r>   -0.6620    1.0000 </r>
       <r>    1.7559    0.0000 </r>
       <r>    1.7829    0.0000 </r>
       <r>    2.0371    0.0000 </r>
       <r>    2.2001    0.0000 </r>
       <r>    2.4611    0.0000 </r>
       <r>    2.7122    0.0000 </r>
       <r>    2.7134    0.0000 </r>
       <r>    2.9506    0.0000 </r>
       <r>    3.1391    0.0000 </r>
       <r>    3.4473    0.0000 </r>
      </set>
      <set comment="kpoint 8">
       <r>  -11.9261    1.0000 </r>
       <r>  -11.9261    1.0000 </r>
       <r>  -11.8294    1.0000 </r>
       <r>  -11.8294    1.0000 </r>
       <r>  -11.7856    1.0000 </r>
       <r>  -11.7856    1.0000 </r>
       <r>   -9.4171    1.0000 </r>
       <r>   -9.4171    1.0000 </r>
       <r>   -9.2355    1.0000 </r>
       <r>   -9.2355    1.0000 </r>
       <r>   -9.1197    1.0000 </r>
       <r>   -9.1197    1.0000 </r>
       <r>   -4.8852    1.0000 </r>
       <r>   -4.8852    1.0000 </r>
       <r>   -4.7192    1.0000 </r>
       <r>   -4.7192    1.0000 </r>
       <r>   -4.5987    1.0000 </r>
       <r>   -4.5987    1.0000 </r>
       <r>   -3.3746    1.0000 </r>
       <r>   -3.3746    1.0000 </r>
       <r>   -3.1756    1.0000 </r>
       <r>   -3.1756    1.0000 </r>
       <r>   -3.1132    1.0000 </r>
       <r>   -3.1132    1.0000 </r>
       <r>   -1.5720    1.0000 </r>
       <r>   -1.5720    1.0000 </r>
       <r>   -1.2694    1.0000 </r>
       <r>   -1.2694    1.0000 </r>
       <r>   -0.9581    1.0000 </r>
       <r>   -0.9581    1.0000 </r>
       <r>    1.6728    0.0000 </r>
       <r>    1.6728    0.0000 </r>
       <r>    1.9206    0.0000 </r>
       <r>    1.9206    0.0000 </r>
       <r>    2.0359    0.0000 </r>
       <r>    2.0359    0.0000 </r>
       <r>    3.2759    0.0000 </r>
       <r>    3.2759    0.0000 </r>
       <r>    3.3922    0.0000 </r>
       <r>    3.3927    0.0000 </r>
      </set>
      <set comment="kpoint 9">
       <r>  -13.9855    1.0000 </r>
       <r>  -13.8877    1.0000 </r>
       <r>  -13.8433    1.0000 </r>
       <r>  -13.0866    1.0000 </r>
       <r>  -13.0270    1.0000 </r>
       <r>  -13.0250    1.0000 </r>
       <r>   -8.9315    1.0000 </r>
       <r>   -8.6576    1.0000 </r>
       <r>   -8.4201    1.0000 </r>
       <r>   -8.0135    1.0000 </r>
       <r>   -7.6883    1.0000 </r>
       <r>   -7.4147    1.0000 </r>
       <r>   -4.1058    1.0000 </r>
       <r>   -3.3826    1.0000 </r>
       <r>   -2.9602    1.0000 </r>
       <r>   -2.7283    1.0000 </r>
       <r>   -2.6520    1.0000 </r>
       <r>   -2.6283    1.0000 </r>
       <r>   -2.5791    1.0000 </r>
       <r>   -2.2280    1.0000 </r>
       <r>   -2.1405    1.0000 </r>
       <r>   -2.0809    1.0000 </r>
       <r>   -2.0806    1.0000 </r>
       <r>   -1.7930    1.0000 </r>
       <r>   -1.3336    1.0000 </r>
       <r>   -1.2924    1.0000 </r>
       <r>   -1.2498    1.0000 </r>
       <r>   -0.0166    1.0000 </r>
       <r>    0.0947    1.0000 </r>
       <r>    0.1422    1.0000 </r>
       <r>    1.9419    0.0000 </r>
       <r>    2.0539    0.0000 </r>
       <r>    2.0588    0.0000 </r>
       <r>    2.1228    0.0000 </r>
       <r>    2.3041    0.0000 </r>
       <r>    2.3278    0.0000 </r>
       <r>    3.1946    0.0000 </r>
       <r>    3.2101    0.0000 </r>
       <r>    3.3538    0.0000 </r>
       <r>    3.4428    0.0000 </r>
      </set>
      <set comment="kpoint 10">
       <r>  -13.6739    1.0000 </r>
       <r>  -13.5771    1.0000 </r>
       <r>  -13.5337    1.0000 </r>
       <r>  -12.7835    1.0000 </r>
       <r>  -12.7239    1.0000 </r>
       <r>  -12.7222    1.0000 </r>
       <r>   -8.8253    1.0000 </r>
       <r>   -8.5695    1.0000 </r>
       <r>   -8.3571    1.0000 </r>
       <r>   -7.8622    1.0000 </r>
       <r>   -7.5702    1.0000 </r>
       <r>   -7.3347    1.0000 </r>
       <r>   -4.7004    1.0000 </r>
       <r>   -4.5729    1.0000 </r>
       <r>   -4.4653    1.0000 </r>
       <r>   -4.0351    1.0000 </r>
       <r>   -3.9838    1.0000 </r>
       <r>   -3.9415    1.0000 </r>
       <r>   -3.7083    1.0000 </r>
       <r>   -3.1367    1.0000 </r>
       <r>   -2.7269    1.0000 </r>
       <r>   -2.4514    1.0000 </r>
       <r>   -2.0761    1.0000 </r>
       <r>   -1.5898    1.0000 </r>
       <r>   -1.0376    1.0000 </r>
       <r>   -0.9286    1.0000 </r>
       <r>   -0.7938    1.0000 </r>
       <r>   -0.7904    1.0000 </r>
       <r>   -0.6045    1.0000 </r>
       <r>   -0.3835    1.0000 </r>
       <r>    2.6349    0.0000 </r>
       <r>    2.6523    0.0000 </r>
       <r>    2.8543    0.0000 </r>
       <r>    3.0788    0.0000 </r>
       <r>    3.1818    0.0000 </r>
       <r>    3.3898    0.0000 </r>
       <r>    3.4838    0.0000 </r>
       <r>    3.5980    0.0000 </r>
       <r>    4.0066    0.0000 </r>
       <r>    4.1621    0.0000 </r>
      </set>
      <set comment="kpoint 11">
       <r>  -12.7803    1.0000 </r>
       <r>  -12.6881    1.0000 </r>
       <r>  -12.6494    1.0000 </r>
       <r>  -11.9620    1.0000 </r>
       <r>  -11.9021    1.0000 </r>
       <r>  -11.9019    1.0000 </r>
       <r>   -9.1484    1.0000 </r>
       <r>   -8.9795    1.0000 </r>
       <r>   -8.8709    1.0000 </r>
       <r>   -8.1537    1.0000 </r>
       <r>   -8.0441    1.0000 </r>
       <r>   -8.0030    1.0000 </r>
       <r>   -5.9800    1.0000 </r>
       <r>   -5.7539    1.0000 </r>
       <r>   -5.5592    1.0000 </r>
       <r>   -5.4367    1.0000 </r>
       <r>   -5.1897    1.0000 </r>
       <r>   -4.9956    1.0000 </r>
       <r>   -3.6966    1.0000 </r>
       <r>   -3.3436    1.0000 </r>
       <r>   -3.0639    1.0000 </r>
       <r>   -3.0311    1.0000 </r>
       <r>   -2.7123    1.0000 </r>
       <r>   -2.4868    1.0000 </r>
       <r>   -2.1592    1.0000 </r>
       <r>   -1.6571    1.0000 </r>
       <r>   -1.4501    1.0000 </r>
       <r>   -1.1192    1.0000 </r>
       <r>   -0.9380    1.0000 </r>
       <r>   -0.6307    1.0000 </r>
       <r>    2.1254    0.0000 </r>
       <r>    2.7435    0.0000 </r>
       <r>    2.9286    0.0000 </r>
       <r>    3.2673    0.0000 </r>
       <r>    3.3134    0.0000 </r>
       <r>    3.4303    0.0000 </r>
       <r>    3.6190    0.0000 </r>
       <r>    3.7910    0.0000 </r>
       <r>    4.3000    0.0000 </r>
       <r>    4.3258    0.0000 </r>
      </set>
      <set comment="kpoint 12">
       <r>  -11.6332    1.0000 </r>
       <r>  -11.6332    1.0000 </r>
       <r>  -11.5652    1.0000 </r>
       <r>  -11.5652    1.0000 </r>
       <r>  -11.5523    1.0000 </r>
       <r>  -11.5523    1.0000 </r>
       <r>   -9.5071    1.0000 </r>
       <r>   -9.5071    1.0000 </r>
       <r>   -9.4217    1.0000 </r>
       <r>   -9.4217    1.0000 </r>
       <r>   -9.3998    1.0000 </r>
       <r>   -9.3998    1.0000 </r>
       <r>   -5.1515    1.0000 </r>
       <r>   -5.1515    1.0000 </r>
       <r>   -4.8858    1.0000 </r>
       <r>   -4.8858    1.0000 </r>
       <r>   -4.6540    1.0000 </r>
       <r>   -4.6540    1.0000 </r>
       <r>   -4.5351    1.0000 </r>
       <r>   -4.5351    1.0000 </r>
       <r>   -4.2320    1.0000 </r>
       <r>   -4.2320    1.0000 </r>
       <r>   -3.9796    1.0000 </r>
       <r>   -3.9796    1.0000 </r>
       <r>   -1.4055    1.0000 </r>
       <r>   -1.4055    1.0000 </r>
       <r>   -1.0935    1.0000 </r>
       <r>   -1.0935    1.0000 </r>
       <r>   -1.0158    1.0000 </r>
       <r>   -1.0158    1.0000 </r>
       <r>    2.6673    0.0000 </r>
       <r>    2.6673    0.0000 </r>
       <r>    2.7730    0.0000 </r>
       <r>    2.7730    0.0000 </r>
       <r>    2.9207    0.0000 </r>
       <r>    2.9207    0.0000 </r>
       <r>    4.1234    0.0000 </r>
       <r>    4.1310    0.0000 </r>
       <r>    4.2215    0.0000 </r>
       <r>    4.2472    0.0000 </r>
      </set>
     </set>
    </set>
   </array>
  </eigenvalues>
  <separator name="orbital magnetization" >
   <v name="MAGDIPOLOUT">      0.00000000      0.00000000      0.00000000</v>
  </separator>
  <dos>
   <i name="efermi">      0.93639871 </i>
   <total>
    <array>
     <dimension dim="1">gridpoints</dimension>
     <dimension dim="2">spin</dimension>
     <field>energy</field>
     <field>total</field>
     <field>integrated</field>
     <set>
      <set comment="spin 1">
       <r>   -15.8145     0.0000     0.0000 </r>
       <r>   -15.8039     0.0000     0.0000 </r>
       <r>   -15.7934     0.0000     0.0000 </r>
       <r>   -15.7828     0.0000     0.0000 </r>
       <r>   -15.7723     0.0000     0.0000 </r>
       <r>   -15.7617     0.0000     0.0000 </r>
       <r>   -15.7512     0.0000     0.0000 </r>
       <r>   -15.7406     0.0000     0.0000 </r>
       <r>   -15.7301     0.0000     0.0000 </r>
       <r>   -15.7195     0.0000     0.0000 </r>
       <r>   -15.7090     0.0000     0.0000 </r>
       <r>   -15.6984     0.0000     0.0000 </r>
       <r>   -15.6878     0.0000     0.0000 </r>
       <r>   -15.6773     0.0000     0.0000 </r>
       <r>   -15.6667     0.0000     0.0000 </r>
       <r>   -15.6562     0.0000     0.0000 </r>
       <r>   -15.6456     0.0000     0.0000 </r>
       <r>   -15.6351     0.0000     0.0000 </r>
       <r>   -15.6245     0.0000     0.0000 </r>
       <r>   -15.6140     0.0000     0.0000 </r>
       <r>   -15.6034     0.0000     0.0000 </r>
       <r>   -15.5928     0.0000     0.0000 </r>
       <r>   -15.5823     0.0000     0.0000 </r>
       <r>   -15.5717     0.0000     0.0000 </r>
       <r>   -15.5612     0.0000     0.0000 </r>
       <r>   -15.5506     0.0000     0.0000 </r>
       <r>   -15.5401     0.0000     0.0000 </r>
       <r>   -15.5295     0.0000     0.0000 </r>
       <r>   -15.5190     0.0000     0.0000 </r>
       <r>   -15.5084     0.0000     0.0000 </r>
       <r>   -15.4979     0.0000     0.0000 </r>
       <r>   -15.4873     0.0000     0.0000 </r>
       <r>   -15.4767     0.0000     0.0000 </r>
       <r>   -15.4662     0.0000     0.0000 </r>
       <r>   -15.4556     0.0000     0.0000 </r>
       <r>   -15.4451     0.0000     0.0000 </r>
       <r>   -15.4345     0.0000     0.0000 </r>
       <r>   -15.4240     0.0000     0.0000 </r>
       <r>   -15.4134     0.0000     0.0000 </r>
       <r>   -15.4029     0.0000     0.0000 </r>
       <r>   -15.3923     0.0000     0.0000 </r>
       <r>   -15.3817     0.0000     0.0000 </r>
       <r>   -15.3712     0.0000     0.0000 </r>
       <r>   -15.3606     0.0000     0.0000 </r>
       <r>   -15.3501     0.0000     0.0000 </r>
       <r>   -15.3395     0.0000     0.0000 </r>
       <r>   -15.3290     0.0000     0.0000 </r>
       <r>   -15.3184     0.0000     0.0000 </r>
       <r>   -15.3079     0.0000     0.0000 </r>
       <r>   -15.2973     0.0000     0.0000 </r>
       <r>   -15.2868     0.0000     0.0000 </r>
       <r>   -15.2762     0.0000     0.0000 </r>
       <r>   -15.2656     0.0000     0.0000 </r>
       <r>   -15.2551     0.0000     0.0000 </r>
       <r>   -15.2445     0.0000     0.0000 </r>
       <r>   -15.2340     0.0000     0.0000 </r>
       <r>   -15.2234     0.0000     0.0000 </r>
       <r>   -15.2129     0.0000     0.0000 </r>
       <r>   -15.2023     0.0000     0.0000 </r>
       <r>   -15.1918     0.0000     0.0000 </r>
       <r>   -15.1812     0.0000     0.0000 </r>
       <r>   -15.1706     0.0000     0.0000 </r>
       <r>   -15.1601     0.0000     0.0000 </r>
       <r>   -15.1495     0.0000     0.0000 </r>
       <r>   -15.1390     0.0000     0.0000 </r>
       <r>   -15.1284     0.0000     0.0000 </r>
       <r>   -15.1179     0.0000     0.0000 </r>
       <r>   -15.1073     0.0000     0.0000 </r>
       <r>   -15.0968     0.0000     0.0000 </r>
       <r>   -15.0862     0.0000     0.0000 </r>
       <r>   -15.0757     0.0000     0.0000 </r>
       <r>   -15.0651     0.0000     0.0000 </r>
       <r>   -15.0545     0.0000     0.0000 </r>
       <r>   -15.0440     0.0000     0.0000 </r>
       <r>   -15.0334     0.0000     0.0000 </r>
       <r>   -15.0229     0.0000     0.0000 </r>
       <r>   -15.0123     0.0000     0.0000 </r>
       <r>   -15.0018     0.0000     0.0000 </r>
       <r>   -14.9912     0.0000     0.0000 </r>
       <r>   -14.9807     0.0000     0.0000 </r>
       <r>   -14.9701     0.0000     0.0000 </r>
       <r>   -14.9595     0.0000     0.0000 </r>
       <r>   -14.9490     0.0000     0.0000 </r>
       <r>   -14.9384     0.0000     0.0000 </r>
       <r>   -14.9279     0.0000     0.0000 </r>
       <r>   -14.9173     0.0000     0.0000 </r>
       <r>   -14.9068     0.0000     0.0000 </r>
       <r>   -14.8962     0.0000     0.0000 </r>
       <r>   -14.8857     0.0001     0.0000 </r>
       <r>   -14.8751     0.0170     0.0002 </r>
       <r>   -14.8646     0.6062     0.0066 </r>
       <r>   -14.8540     3.0442     0.0387 </r>
       <r>   -14.8434     2.3650     0.0637 </r>
       <r>   -14.8329     0.2792     0.0666 </r>
       <r>   -14.8223     0.0045     0.0667 </r>
       <r>   -14.8118     0.0000     0.0667 </r>
       <r>   -14.8012     0.0000     0.0667 </r>
       <r>   -14.7907     0.0000     0.0667 </r>
       <r>   -14.7801     0.0000     0.0667 </r>
       <r>   -14.7696     0.0000     0.0667 </r>
       <r>   -14.7590     0.0025     0.0667 </r>
       <r>   -14.7484     0.1930     0.0687 </r>
       <r>   -14.7379     2.0410     0.0903 </r>
       <r>   -14.7273     3.2478     0.1246 </r>
       <r>   -14.7168     0.8033     0.1330 </r>
       <r>   -14.7062     0.0284     0.1333 </r>
       <r>   -14.6957     0.0002     0.1333 </r>
       <r>   -14.6851     0.0251     0.1336 </r>
       <r>   -14.6746     0.7522     0.1415 </r>
       <r>   -14.6640     3.2045     0.1754 </r>
       <r>   -14.6535     2.1232     0.1978 </r>
       <r>   -14.6429     0.5170     0.2032 </r>
       <r>   -14.6323     3.6954     0.2422 </r>
       <r>   -14.6218     6.6750     0.3127 </r>
       <r>   -14.6112     1.8793     0.3325 </r>
       <r>   -14.6007     0.0762     0.3333 </r>
       <r>   -14.5901     0.0004     0.3333 </r>
       <r>   -14.5796     0.0000     0.3333 </r>
       <r>   -14.5690     0.0000     0.3333 </r>
       <r>   -14.5585     0.0011     0.3333 </r>
       <r>   -14.5479     0.1498     0.3349 </r>
       <r>   -14.5373     2.6545     0.3629 </r>
       <r>   -14.5268     7.2210     0.4392 </r>
       <r>   -14.5162     6.6704     0.5096 </r>
       <r>   -14.5057     6.7589     0.5809 </r>
       <r>   -14.4951     1.7426     0.5993 </r>
       <r>   -14.4846     0.0659     0.6000 </r>
       <r>   -14.4740     0.0030     0.6000 </r>
       <r>   -14.4635     0.2613     0.6028 </r>
       <r>   -14.4529     3.4450     0.6391 </r>
       <r>   -14.4424     6.7621     0.7105 </r>
       <r>   -14.4318     2.1168     0.7329 </r>
       <r>   -14.4212     1.5512     0.7492 </r>
       <r>   -14.4107     6.3677     0.8164 </r>
       <r>   -14.4001     4.3108     0.8619 </r>
       <r>   -14.3896     0.4408     0.8666 </r>
       <r>   -14.3790     0.0061     0.8667 </r>
       <r>   -14.3685     0.0066     0.8667 </r>
       <r>   -14.3579     0.4606     0.8716 </r>
       <r>   -14.3474     4.3876     0.9179 </r>
       <r>   -14.3368     6.3211     0.9846 </r>
       <r>   -14.3262     1.5619     1.0011 </r>
       <r>   -14.3157     3.7688     1.0409 </r>
       <r>   -14.3051    13.3314     1.1816 </r>
       <r>   -14.2946     7.4322     1.2601 </r>
       <r>   -14.2840     0.6199     1.2666 </r>
       <r>   -14.2735     0.0069     1.2667 </r>
       <r>   -14.2629     0.0000     1.2667 </r>
       <r>   -14.2524     0.0000     1.2667 </r>
       <r>   -14.2418     0.0000     1.2667 </r>
       <r>   -14.2313     0.0000     1.2667 </r>
       <r>   -14.2207     0.0019     1.2667 </r>
       <r>   -14.2101     0.2736     1.2696 </r>
       <r>   -14.1996     5.0699     1.3231 </r>
       <r>   -14.1890    13.7407     1.4681 </r>
       <r>   -14.1785     5.8130     1.5295 </r>
       <r>   -14.1679     0.3625     1.5333 </r>
       <r>   -14.1574     0.0055     1.5334 </r>
       <r>   -14.1468     0.3228     1.5368 </r>
       <r>   -14.1363     5.4980     1.5948 </r>
       <r>   -14.1257    13.7572     1.7400 </r>
       <r>   -14.1152     5.3737     1.7967 </r>
       <r>   -14.1046     0.3080     1.8000 </r>
       <r>   -14.0940     0.0023     1.8000 </r>
       <r>   -14.0835     0.0000     1.8000 </r>
       <r>   -14.0729     0.0000     1.8000 </r>
       <r>   -14.0624     0.0000     1.8000 </r>
       <r>   -14.0518     0.0000     1.8000 </r>
       <r>   -14.0413     0.0000     1.8000 </r>
       <r>   -14.0307     0.0000     1.8000 </r>
       <r>   -14.0202     0.0000     1.8000 </r>
       <r>   -14.0096     0.0042     1.8000 </r>
       <r>   -13.9990     0.3514     1.8038 </r>
       <r>   -13.9885     3.9233     1.8452 </r>
       <r>   -13.9779     6.5748     1.9146 </r>
       <r>   -13.9674     1.7142     1.9327 </r>
       <r>   -13.9568     0.0640     1.9333 </r>
       <r>   -13.9463     0.0003     1.9333 </r>
       <r>   -13.9357     0.0000     1.9333 </r>
       <r>   -13.9252     0.0000     1.9333 </r>
       <r>   -13.9146     0.0009     1.9333 </r>
       <r>   -13.9041     0.1313     1.9347 </r>
       <r>   -13.8935     2.4835     1.9609 </r>
       <r>   -13.8829     6.8648     2.0334 </r>
       <r>   -13.8724     2.9620     2.0647 </r>
       <r>   -13.8618     0.2434     2.0672 </r>
       <r>   -13.8513     1.5795     2.0839 </r>
       <r>   -13.8407     6.4725     2.1522 </r>
       <r>   -13.8302     4.1256     2.1958 </r>
       <r>   -13.8196     0.3960     2.1999 </r>
       <r>   -13.8091     0.0051     2.2000 </r>
       <r>   -13.7985     0.0000     2.2000 </r>
       <r>   -13.7879     0.0000     2.2000 </r>
       <r>   -13.7774     0.0000     2.2000 </r>
       <r>   -13.7668     0.0000     2.2000 </r>
       <r>   -13.7563     0.0000     2.2000 </r>
       <r>   -13.7457     0.0000     2.2000 </r>
       <r>   -13.7352     0.0000     2.2000 </r>
       <r>   -13.7246     0.0000     2.2000 </r>
       <r>   -13.7141     0.0000     2.2000 </r>
       <r>   -13.7035     0.0004     2.2000 </r>
       <r>   -13.6930     0.0889     2.2009 </r>
       <r>   -13.6824     2.8133     2.2306 </r>
       <r>   -13.6718    12.6292     2.3639 </r>
       <r>   -13.6613     8.7936     2.4568 </r>
       <r>   -13.6507     0.9260     2.4665 </r>
       <r>   -13.6402     0.0132     2.4667 </r>
       <r>   -13.6296     0.0000     2.4667 </r>
       <r>   -13.6191     0.0000     2.4667 </r>
       <r>   -13.6085     0.0003     2.4667 </r>
       <r>   -13.5980     0.0819     2.4675 </r>
       <r>   -13.5874     3.1529     2.5008 </r>
       <r>   -13.5768    17.4224     2.6847 </r>
       <r>   -13.5663    15.1507     2.8446 </r>
       <r>   -13.5557     2.0723     2.8665 </r>
       <r>   -13.5452     1.3211     2.8804 </r>
       <r>   -13.5346     9.9572     2.9855 </r>
       <r>   -13.5241    11.7919     3.1100 </r>
       <r>   -13.5135     2.1552     3.1327 </r>
       <r>   -13.5030     0.0552     3.1333 </r>
       <r>   -13.4924     0.0005     3.1333 </r>
       <r>   -13.4819     0.0704     3.1341 </r>
       <r>   -13.4713     1.8030     3.1531 </r>
       <r>   -13.4607     6.6317     3.2231 </r>
       <r>   -13.4502     3.7974     3.2632 </r>
       <r>   -13.4396     0.3257     3.2666 </r>
       <r>   -13.4291     0.0041     3.2667 </r>
       <r>   -13.4185     0.0734     3.2674 </r>
       <r>   -13.4080     1.8431     3.2869 </r>
       <r>   -13.3974     6.6559     3.3572 </r>
       <r>   -13.3869     3.9006     3.3983 </r>
       <r>   -13.3763     4.1556     3.4422 </r>
       <r>   -13.3657    13.3959     3.5836 </r>
       <r>   -13.3552     7.2752     3.6604 </r>
       <r>   -13.3446     0.5904     3.6666 </r>
       <r>   -13.3341     0.0064     3.6667 </r>
       <r>   -13.3235     0.0000     3.6667 </r>
       <r>   -13.3130     0.0000     3.6667 </r>
       <r>   -13.3024     0.0000     3.6667 </r>
       <r>   -13.2919     0.0000     3.6667 </r>
       <r>   -13.2813     0.0220     3.6669 </r>
       <r>   -13.2708     1.2607     3.6802 </r>
       <r>   -13.2602     9.8961     3.7847 </r>
       <r>   -13.2496    11.8415     3.9096 </r>
       <r>   -13.2391     2.1874     3.9327 </r>
       <r>   -13.2285     0.0580     3.9333 </r>
       <r>   -13.2180     0.2092     3.9356 </r>
       <r>   -13.2074     4.4289     3.9823 </r>
       <r>   -13.1969    13.6210     4.1261 </r>
       <r>   -13.1863     6.5345     4.1950 </r>
       <r>   -13.1758     0.4653     4.2000 </r>
       <r>   -13.1652     0.0044     4.2000 </r>
       <r>   -13.1546     0.0000     4.2000 </r>
       <r>   -13.1441     0.0000     4.2000 </r>
       <r>   -13.1335     0.0000     4.2000 </r>
       <r>   -13.1230     0.0000     4.2000 </r>
       <r>   -13.1124     0.0016     4.2000 </r>
       <r>   -13.1019     0.1923     4.2020 </r>
       <r>   -13.0913     2.9896     4.2336 </r>
       <r>   -13.0808     6.8614     4.3060 </r>
       <r>   -13.0702     2.4578     4.3320 </r>
       <r>   -13.0597     0.1286     4.3333 </r>
       <r>   -13.0491     0.0162     4.3335 </r>
       <r>   -13.0385     0.9827     4.3439 </r>
       <r>   -13.0280     8.8610     4.4374 </r>
       <r>   -13.0174    12.4929     4.5693 </r>
       <r>   -13.0069     2.8187     4.5990 </r>
       <r>   -12.9963     0.0934     4.6000 </r>
       <r>   -12.9858     0.0004     4.6000 </r>
       <r>   -12.9752     0.0000     4.6000 </r>
       <r>   -12.9647     0.0000     4.6000 </r>
       <r>   -12.9541     0.0000     4.6000 </r>
       <r>   -12.9435     0.0000     4.6000 </r>
       <r>   -12.9330     0.0000     4.6000 </r>
       <r>   -12.9224     0.0000     4.6000 </r>
       <r>   -12.9119     0.0000     4.6000 </r>
       <r>   -12.9013     0.0000     4.6000 </r>
       <r>   -12.8908     0.0000     4.6000 </r>
       <r>   -12.8802     0.0000     4.6000 </r>
       <r>   -12.8697     0.0000     4.6000 </r>
       <r>   -12.8591     0.0000     4.6000 </r>
       <r>   -12.8486     0.0000     4.6000 </r>
       <r>   -12.8380     0.0000     4.6000 </r>
       <r>   -12.8274     0.0000     4.6000 </r>
       <r>   -12.8169     0.0000     4.6000 </r>
       <r>   -12.8063     0.0187     4.6002 </r>
       <r>   -12.7958     1.3876     4.6148 </r>
       <r>   -12.7852    14.9332     4.7725 </r>
       <r>   -12.7747    26.1206     5.0482 </r>
       <r>   -12.7641     7.7106     5.1296 </r>
       <r>   -12.7536     0.3566     5.1333 </r>
       <r>   -12.7430     0.1279     5.1347 </r>
       <r>   -12.7324     4.5493     5.1827 </r>
       <r>   -12.7219    23.7339     5.4332 </r>
       <r>   -12.7113    19.5740     5.6398 </r>
       <r>   -12.7008     3.4304     5.6760 </r>
       <r>   -12.6902     8.8050     5.7689 </r>
       <r>   -12.6797    12.6507     5.9025 </r>
       <r>   -12.6691     2.8997     5.9331 </r>
       <r>   -12.6586     2.4670     5.9591 </r>
       <r>   -12.6480    12.1136     6.0870 </r>
       <r>   -12.6375     9.5459     6.1877 </r>
       <r>   -12.6269     1.1439     6.1998 </r>
       <r>   -12.6163     0.0187     6.2000 </r>
       <r>   -12.6058     0.0000     6.2000 </r>
       <r>   -12.5952     0.0000     6.2000 </r>
       <r>   -12.5847     0.0000     6.2000 </r>
       <r>   -12.5741     0.0000     6.2000 </r>
       <r>   -12.5636     0.0000     6.2000 </r>
       <r>   -12.5530     0.0000     6.2000 </r>
       <r>   -12.5425     0.0000     6.2000 </r>
       <r>   -12.5319     0.0006     6.2000 </r>
       <r>   -12.5213     0.0986     6.2010 </r>
       <r>   -12.5108     2.1490     6.2237 </r>
       <r>   -12.5002     6.7904     6.2954 </r>
       <r>   -12.4897     3.3462     6.3307 </r>
       <r>   -12.4791     0.2451     6.3333 </r>
       <r>   -12.4686     0.0024     6.3333 </r>
       <r>   -12.4580     0.0000     6.3333 </r>
       <r>   -12.4475     0.0000     6.3333 </r>
       <r>   -12.4369     0.0000     6.3333 </r>
       <r>   -12.4264     0.0000     6.3333 </r>
       <r>   -12.4158     0.0000     6.3333 </r>
       <r>   -12.4052     0.0001     6.3333 </r>
       <r>   -12.3947     0.0225     6.3336 </r>
       <r>   -12.3841     0.7078     6.3410 </r>
       <r>   -12.3736     3.1619     6.3744 </r>
       <r>   -12.3630     2.1914     6.3975 </r>
       <r>   -12.3525     0.2979     6.4007 </r>
       <r>   -12.3419     1.7784     6.4195 </r>
       <r>   -12.3314     6.6147     6.4893 </r>
       <r>   -12.3208     3.8364     6.5298 </r>
       <r>   -12.3103     0.3335     6.5333 </r>
       <r>   -12.2997     0.0039     6.5333 </r>
       <r>   -12.2891     0.0000     6.5333 </r>
       <r>   -12.2786     0.0000     6.5333 </r>
       <r>   -12.2680     0.0002     6.5333 </r>
       <r>   -12.2575     0.0395     6.5338 </r>
       <r>   -12.2469     1.3175     6.5477 </r>
       <r>   -12.2364     6.2177     6.6133 </r>
       <r>   -12.2258     4.5461     6.6613 </r>
       <r>   -12.2153     0.5038     6.6666 </r>
       <r>   -12.2047     0.0236     6.6668 </r>
       <r>   -12.1941     1.0388     6.6778 </r>
       <r>   -12.1836     9.2008     6.7749 </r>
       <r>   -12.1730    12.3612     6.9054 </r>
       <r>   -12.1625     2.5718     6.9325 </r>
       <r>   -12.1519     0.0809     6.9334 </r>
       <r>   -12.1414     0.3066     6.9366 </r>
       <r>   -12.1308     2.4482     6.9625 </r>
       <r>   -12.1203     2.9809     6.9939 </r>
       <r>   -12.1097     0.5606     6.9998 </r>
       <r>   -12.0992     0.0149     7.0000 </r>
       <r>   -12.0886     0.0246     7.0003 </r>
       <r>   -12.0780     1.0082     7.0109 </r>
       <r>   -12.0675     5.7838     7.0719 </r>
       <r>   -12.0569     5.1832     7.1267 </r>
       <r>   -12.0464     2.4957     7.1530 </r>
       <r>   -12.0358     6.7253     7.2240 </r>
       <r>   -12.0253     6.4408     7.2920 </r>
       <r>   -12.0147    12.7732     7.4268 </r>
       <r>   -12.0042     9.0770     7.5226 </r>
       <r>   -11.9936     1.0025     7.5332 </r>
       <r>   -11.9830     0.0863     7.5341 </r>
       <r>   -11.9725     2.9371     7.5651 </r>
       <r>   -11.9619    17.3667     7.7484 </r>
       <r>   -11.9514    17.8605     7.9369 </r>
       <r>   -11.9408     6.0252     8.0005 </r>
       <r>   -11.9303    12.3795     8.1312 </r>
       <r>   -11.9197    28.9435     8.4367 </r>
       <r>   -11.9092    23.9017     8.6890 </r>
       <r>   -11.8986    31.9136     9.0258 </r>
       <r>   -11.8881    15.2671     9.1869 </r>
       <r>   -11.8775     1.2236     9.1999 </r>
       <r>   -11.8669     0.0134     9.2000 </r>
       <r>   -11.8564     0.0017     9.2000 </r>
       <r>   -11.8458     0.2541     9.2027 </r>
       <r>   -11.8353     4.8875     9.2543 </r>
       <r>   -11.8247    13.7190     9.3991 </r>
       <r>   -11.8142     6.0434     9.4629 </r>
       <r>   -11.8036     1.7089     9.4809 </r>
       <r>   -11.7931     9.5963     9.5822 </r>
       <r>   -11.7825    18.0056     9.7723 </r>
       <r>   -11.7719     8.2583     9.8594 </r>
       <r>   -11.7614     0.6787     9.8666 </r>
       <r>   -11.7508     0.0078     9.8667 </r>
       <r>   -11.7403     0.0000     9.8667 </r>
       <r>   -11.7297     0.0000     9.8667 </r>
       <r>   -11.7192     0.0000     9.8667 </r>
       <r>   -11.7086     0.0000     9.8667 </r>
       <r>   -11.6981     0.0000     9.8667 </r>
       <r>   -11.6875     0.0000     9.8667 </r>
       <r>   -11.6770     0.0000     9.8667 </r>
       <r>   -11.6664     0.0000     9.8667 </r>
       <r>   -11.6558     0.0173     9.8668 </r>
       <r>   -11.6453     1.0888     9.8783 </r>
       <r>   -11.6347     9.4092     9.9777 </r>
       <r>   -11.6242    13.5851    10.1210 </r>
       <r>   -11.6136     8.7214    10.2131 </r>
       <r>   -11.6031     4.5753    10.2614 </r>
       <r>   -11.5925     0.4938    10.2666 </r>
       <r>   -11.5820     0.2300    10.2690 </r>
       <r>   -11.5714     4.6571    10.3182 </r>
       <r>   -11.5608    16.4361    10.4917 </r>
       <r>   -11.5503    18.9609    10.6918 </r>
       <r>   -11.5397     9.2918    10.7899 </r>
       <r>   -11.5292     0.9454    10.7999 </r>
       <r>   -11.5186     0.0136    10.8000 </r>
       <r>   -11.5081     0.0000    10.8000 </r>
       <r>   -11.4975     0.0000    10.8000 </r>
       <r>   -11.4870     0.0000    10.8000 </r>
       <r>   -11.4764     0.0000    10.8000 </r>
       <r>   -11.4659     0.0000    10.8000 </r>
       <r>   -11.4553     0.0000    10.8000 </r>
       <r>   -11.4447     0.0000    10.8000 </r>
       <r>   -11.4342     0.0000    10.8000 </r>
       <r>   -11.4236     0.0000    10.8000 </r>
       <r>   -11.4131     0.0000    10.8000 </r>
       <r>   -11.4025     0.0000    10.8000 </r>
       <r>   -11.3920     0.0000    10.8000 </r>
       <r>   -11.3814     0.0000    10.8000 </r>
       <r>   -11.3709     0.0000    10.8000 </r>
       <r>   -11.3603     0.0000    10.8000 </r>
       <r>   -11.3497     0.0000    10.8000 </r>
       <r>   -11.3392     0.0000    10.8000 </r>
       <r>   -11.3286     0.0199    10.8002 </r>
       <r>   -11.3181     1.1862    10.8127 </r>
       <r>   -11.3075     9.6764    10.9149 </r>
       <r>   -11.2970    12.0144    11.0417 </r>
       <r>   -11.2864     2.3053    11.0660 </r>
       <r>   -11.2759     0.0622    11.0667 </r>
       <r>   -11.2653     0.0002    11.0667 </r>
       <r>   -11.2548     0.0000    11.0667 </r>
       <r>   -11.2442     0.0000    11.0667 </r>
       <r>   -11.2336     0.0000    11.0667 </r>
       <r>   -11.2231     0.0000    11.0667 </r>
       <r>   -11.2125     0.0000    11.0667 </r>
       <r>   -11.2020     0.0012    11.0667 </r>
       <r>   -11.1914     0.2053    11.0688 </r>
       <r>   -11.1809     4.3877    11.1152 </r>
       <r>   -11.1703    13.6090    11.2588 </r>
       <r>   -11.1598     6.5839    11.3283 </r>
       <r>   -11.1492     0.4730    11.3333 </r>
       <r>   -11.1386     0.0174    11.3335 </r>
       <r>   -11.1281     0.9106    11.3431 </r>
       <r>   -11.1175     8.7347    11.4353 </r>
       <r>   -11.1070    12.6657    11.5690 </r>
       <r>   -11.0964     2.8493    11.5990 </r>
       <r>   -11.0859     0.0910    11.6000 </r>
       <r>   -11.0753     0.0004    11.6000 </r>
       <r>   -11.0648     0.0007    11.6000 </r>
       <r>   -11.0542     0.1094    11.6012 </r>
       <r>   -11.0437     2.2660    11.6251 </r>
       <r>   -11.0331     6.8243    11.6971 </r>
       <r>   -11.0225     3.2065    11.7310 </r>
       <r>   -11.0120     0.2234    11.7333 </r>
       <r>   -11.0014     0.0021    11.7333 </r>
       <r>   -10.9909     0.0000    11.7333 </r>
       <r>   -10.9803     0.0000    11.7333 </r>
       <r>   -10.9698     0.0000    11.7333 </r>
       <r>   -10.9592     0.0000    11.7333 </r>
       <r>   -10.9487     0.0000    11.7333 </r>
       <r>   -10.9381     0.0000    11.7333 </r>
       <r>   -10.9275     0.0000    11.7333 </r>
       <r>   -10.9170     0.0000    11.7333 </r>
       <r>   -10.9064     0.0000    11.7333 </r>
       <r>   -10.8959     0.0000    11.7333 </r>
       <r>   -10.8853     0.0000    11.7333 </r>
       <r>   -10.8748     0.0000    11.7333 </r>
       <r>   -10.8642     0.0000    11.7333 </r>
       <r>   -10.8537     0.0000    11.7333 </r>
       <r>   -10.8431     0.0000    11.7333 </r>
       <r>   -10.8326     0.0000    11.7333 </r>
       <r>   -10.8220     0.0034    11.7334 </r>
       <r>   -10.8114     0.3071    11.7366 </r>
       <r>   -10.8009     3.7015    11.7757 </r>
       <r>   -10.7903     6.6714    11.8461 </r>
       <r>   -10.7798     1.8728    11.8659 </r>
       <r>   -10.7692     0.0757    11.8667 </r>
       <r>   -10.7587     0.0004    11.8667 </r>
       <r>   -10.7481     0.0000    11.8667 </r>
       <r>   -10.7376     0.0000    11.8667 </r>
       <r>   -10.7270     0.0000    11.8667 </r>
       <r>   -10.7164     0.0000    11.8667 </r>
       <r>   -10.7059     0.0000    11.8667 </r>
       <r>   -10.6953     0.0000    11.8667 </r>
       <r>   -10.6848     0.0000    11.8667 </r>
       <r>   -10.6742     0.0000    11.8667 </r>
       <r>   -10.6637     0.0000    11.8667 </r>
       <r>   -10.6531     0.0001    11.8667 </r>
       <r>   -10.6426     0.0267    11.8669 </r>
       <r>   -10.6320     1.0568    11.8781 </r>
       <r>   -10.6215     5.8633    11.9400 </r>
       <r>   -10.6109     5.0183    11.9930 </r>
       <r>   -10.6003     0.6554    11.9999 </r>
       <r>   -10.5898     0.0118    12.0000 </r>
       <r>   -10.5792     0.0000    12.0000 </r>
       <r>   -10.5687     0.0000    12.0000 </r>
       <r>   -10.5581     0.0000    12.0000 </r>
       <r>   -10.5476     0.0000    12.0000 </r>
       <r>   -10.5370     0.0000    12.0000 </r>
       <r>   -10.5265     0.0000    12.0000 </r>
       <r>   -10.5159     0.0000    12.0000 </r>
       <r>   -10.5054     0.0000    12.0000 </r>
       <r>   -10.4948     0.0000    12.0000 </r>
       <r>   -10.4842     0.0000    12.0000 </r>
       <r>   -10.4737     0.0000    12.0000 </r>
       <r>   -10.4631     0.0000    12.0000 </r>
       <r>   -10.4526     0.0000    12.0000 </r>
       <r>   -10.4420     0.0000    12.0000 </r>
       <r>   -10.4315     0.0000    12.0000 </r>
       <r>   -10.4209     0.0000    12.0000 </r>
       <r>   -10.4104     0.0000    12.0000 </r>
       <r>   -10.3998     0.0000    12.0000 </r>
       <r>   -10.3892     0.0000    12.0000 </r>
       <r>   -10.3787     0.0000    12.0000 </r>
       <r>   -10.3681     0.0000    12.0000 </r>
       <r>   -10.3576     0.0000    12.0000 </r>
       <r>   -10.3470     0.0000    12.0000 </r>
       <r>   -10.3365     0.0000    12.0000 </r>
       <r>   -10.3259     0.0000    12.0000 </r>
       <r>   -10.3154     0.0000    12.0000 </r>
       <r>   -10.3048     0.0000    12.0000 </r>
       <r>   -10.2943     0.0000    12.0000 </r>
       <r>   -10.2837     0.0000    12.0000 </r>
       <r>   -10.2731     0.0001    12.0000 </r>
       <r>   -10.2626     0.0255    12.0003 </r>
       <r>   -10.2520     1.0309    12.0112 </r>
       <r>   -10.2415     5.8213    12.0726 </r>
       <r>   -10.2309     5.0683    12.1261 </r>
       <r>   -10.2204     0.6738    12.1332 </r>
       <r>   -10.2098     0.0123    12.1333 </r>
       <r>   -10.1993     0.0000    12.1333 </r>
       <r>   -10.1887     0.0021    12.1334 </r>
       <r>   -10.1781     0.2241    12.1357 </r>
       <r>   -10.1676     3.2118    12.1696 </r>
       <r>   -10.1570     6.8712    12.2421 </r>
       <r>   -10.1465     3.7281    12.2815 </r>
       <r>   -10.1359     6.4827    12.3499 </r>
       <r>   -10.1254     4.3005    12.3953 </r>
       <r>   -10.1148     0.4380    12.3999 </r>
       <r>   -10.1043     0.0060    12.4000 </r>
       <r>   -10.0937     0.0000    12.4000 </r>
       <r>   -10.0832     0.0000    12.4000 </r>
       <r>   -10.0726     0.0000    12.4000 </r>
       <r>   -10.0620     0.0000    12.4000 </r>
       <r>   -10.0515     0.0000    12.4000 </r>
       <r>   -10.0409     0.0000    12.4000 </r>
       <r>   -10.0304     0.0000    12.4000 </r>
       <r>   -10.0198     0.0000    12.4000 </r>
       <r>   -10.0093     0.0000    12.4000 </r>
       <r>    -9.9987     0.0000    12.4000 </r>
       <r>    -9.9882     0.0000    12.4000 </r>
       <r>    -9.9776     0.0000    12.4000 </r>
       <r>    -9.9670     0.0000    12.4000 </r>
       <r>    -9.9565     0.0000    12.4000 </r>
       <r>    -9.9459     0.0000    12.4000 </r>
       <r>    -9.9354     0.0042    12.4000 </r>
       <r>    -9.9248     0.4526    12.4048 </r>
       <r>    -9.9143     6.4518    12.4729 </r>
       <r>    -9.9037    13.6402    12.6169 </r>
       <r>    -9.8932     4.4988    12.6644 </r>
       <r>    -9.8826     0.2156    12.6667 </r>
       <r>    -9.8721     0.0013    12.6667 </r>
       <r>    -9.8615     0.0000    12.6667 </r>
       <r>    -9.8509     0.0000    12.6667 </r>
       <r>    -9.8404     0.0000    12.6667 </r>
       <r>    -9.8298     0.0000    12.6667 </r>
       <r>    -9.8193     0.0000    12.6667 </r>
       <r>    -9.8087     0.0000    12.6667 </r>
       <r>    -9.7982     0.0000    12.6667 </r>
       <r>    -9.7876     0.0054    12.6667 </r>
       <r>    -9.7771     0.5274    12.6723 </r>
       <r>    -9.7665     6.9177    12.7453 </r>
       <r>    -9.7559    13.5153    12.8880 </r>
       <r>    -9.7454     4.1165    12.9314 </r>
       <r>    -9.7348     0.1813    12.9333 </r>
       <r>    -9.7243     0.0010    12.9333 </r>
       <r>    -9.7137     0.0000    12.9333 </r>
       <r>    -9.7032     0.0000    12.9333 </r>
       <r>    -9.6926     0.0002    12.9333 </r>
       <r>    -9.6821     0.0548    12.9339 </r>
       <r>    -9.6715     2.1458    12.9566 </r>
       <r>    -9.6610    11.7774    13.0809 </r>
       <r>    -9.6504     9.9749    13.1862 </r>
       <r>    -9.6398     1.2885    13.1998 </r>
       <r>    -9.6293     0.0228    13.2000 </r>
       <r>    -9.6187     0.0001    13.2000 </r>
       <r>    -9.6082     0.0000    13.2000 </r>
       <r>    -9.5976     0.0000    13.2000 </r>
       <r>    -9.5871     0.0000    13.2000 </r>
       <r>    -9.5765     0.0000    13.2000 </r>
       <r>    -9.5660     0.0000    13.2000 </r>
       <r>    -9.5554     0.0000    13.2000 </r>
       <r>    -9.5448     0.0000    13.2000 </r>
       <r>    -9.5343     0.0015    13.2000 </r>
       <r>    -9.5237     0.2322    13.2025 </r>
       <r>    -9.5132     4.6710    13.2518 </r>
       <r>    -9.5026    13.6807    13.3962 </r>
       <r>    -9.4921     6.2524    13.4622 </r>
       <r>    -9.4815     0.4230    13.4666 </r>
       <r>    -9.4710     0.0038    13.4667 </r>
       <r>    -9.4604     0.0000    13.4667 </r>
       <r>    -9.4499     0.0009    13.4667 </r>
       <r>    -9.4393     0.1807    13.4686 </r>
       <r>    -9.4287     5.0984    13.5224 </r>
       <r>    -9.4182    23.5335    13.7708 </r>
       <r>    -9.4076    25.0140    14.0348 </r>
       <r>    -9.3971    22.7209    14.2746 </r>
       <r>    -9.3865    10.9498    14.3902 </r>
       <r>    -9.3760     0.9172    14.3999 </r>
       <r>    -9.3654     0.0106    14.4000 </r>
       <r>    -9.3549     0.0000    14.4000 </r>
       <r>    -9.3443     0.0000    14.4000 </r>
       <r>    -9.3337     0.0000    14.4000 </r>
       <r>    -9.3232     0.0000    14.4000 </r>
       <r>    -9.3126     0.0000    14.4000 </r>
       <r>    -9.3021     0.0000    14.4000 </r>
       <r>    -9.2915     0.0000    14.4000 </r>
       <r>    -9.2810     0.0000    14.4000 </r>
       <r>    -9.2704     0.0000    14.4000 </r>
       <r>    -9.2599     0.0070    14.4001 </r>
       <r>    -9.2493     0.6268    14.4067 </r>
       <r>    -9.2388     7.4685    14.4855 </r>
       <r>    -9.2282    13.3164    14.6261 </r>
       <r>    -9.2176     3.6974    14.6651 </r>
       <r>    -9.2071     0.1476    14.6667 </r>
       <r>    -9.1965     0.0070    14.6667 </r>
       <r>    -9.1860     0.4469    14.6714 </r>
       <r>    -9.1754     4.3365    14.7172 </r>
       <r>    -9.1649     6.6036    14.7869 </r>
       <r>    -9.1543     6.3007    14.8534 </r>
       <r>    -9.1438    13.7694    14.9988 </r>
       <r>    -9.1332     6.7524    15.0700 </r>
       <r>    -9.1226     8.2616    15.1572 </r>
       <r>    -9.1121    13.1429    15.2960 </r>
       <r>    -9.1015     3.4136    15.3320 </r>
       <r>    -9.0910     0.1270    15.3333 </r>
       <r>    -9.0804     0.0006    15.3333 </r>
       <r>    -9.0699     0.0000    15.3333 </r>
       <r>    -9.0593     0.0000    15.3333 </r>
       <r>    -9.0488     0.0005    15.3333 </r>
       <r>    -9.0382     0.1107    15.3345 </r>
       <r>    -9.0277     3.1911    15.3682 </r>
       <r>    -9.0171    13.8826    15.5147 </r>
       <r>    -9.0065    13.8679    15.6611 </r>
       <r>    -8.9960     6.3151    15.7278 </r>
       <r>    -8.9854     5.6240    15.7871 </r>
       <r>    -8.9749    13.7294    15.9320 </r>
       <r>    -8.9643     6.0433    15.9958 </r>
       <r>    -8.9538     0.4036    16.0001 </r>
       <r>    -8.9432     0.6055    16.0065 </r>
       <r>    -8.9327     4.9512    16.0587 </r>
       <r>    -8.9221     8.5894    16.1494 </r>
       <r>    -8.9116    16.1291    16.3196 </r>
       <r>    -8.9010    21.6700    16.5484 </r>
       <r>    -8.8904     9.9312    16.6532 </r>
       <r>    -8.8799     3.8292    16.6936 </r>
       <r>    -8.8693    12.3210    16.8236 </r>
       <r>    -8.8588     9.3746    16.9226 </r>
       <r>    -8.8482     4.0975    16.9658 </r>
       <r>    -8.8377    20.8718    17.1861 </r>
       <r>    -8.8271    31.7314    17.5211 </r>
       <r>    -8.8166    17.8889    17.7099 </r>
       <r>    -8.8060     7.8706    17.7930 </r>
       <r>    -8.7954     5.9171    17.8554 </r>
       <r>    -8.7849     1.0406    17.8664 </r>
       <r>    -8.7743     0.0260    17.8667 </r>
[...]
        <r>  0.0122  0.0096  0.0177  0.0101  0.0000  0.0000  0.0000  0.0000  0.0000 </r>
        <r>  0.0110  0.0086  0.0159  0.0112  0.0000  0.0000  0.0000  0.0000  0.0000 </r>
        <r>  0.0122  0.0096  0.0177  0.0101  0.0000  0.0000  0.0000  0.0000  0.0000 </r>
        <r>  0.0110  0.0086  0.0159  0.0112  0.0000  0.0000  0.0000  0.0000  0.0000 </r>
        <r>  0.0071  0.0044  0.0119  0.0087  0.0000  0.0000  0.0000  0.0000  0.0000 </r>
        <r>  0.0079  0.0049  0.0133  0.0078  0.0000  0.0000  0.0000  0.0000  0.0000 </r>
        <r>  0.0073  0.0078  0.0093  0.0065  0.0000  0.0000  0.0000  0.0000  0.0000 </r>
        <r>  0.0082  0.0087  0.0103  0.0058  0.0000  0.0000  0.0000  0.0000  0.0000 </r>
       </set>
       <set comment="band 25">
        <r>  0.0056  0.0212  0.0064  0.0012  0.0000  0.0000  0.0000  0.0000  0.0000 </r>
        <r>  0.0013  0.0048  0.0015  0.0055  0.0000  0.0000  0.0000  0.0000  0.0000 </r>
        <r>  0.0022  0.0253  0.0055  0.0010  0.0000  0.0000  0.0000  0.0000  0.0000 </r>
        <r>  0.0005  0.0058  0.0013  0.0042  0.0000  0.0000  0.0000  0.0000  0.0000 </r>
        <r>  0.0023  0.0150  0.0027  0.0101  0.0000  0.0000  0.0000  0.0000  0.0000 </r>
        <r>  0.0100  0.0662  0.0120  0.0023  0.0000  0.0000  0.0000  0.0000  0.0000 </r>
        <r>  0.0023  0.0150  0.0027  0.0101  0.0000  0.0000  0.0000  0.0000  0.0000 </r>
        <r>  0.0100  0.0662  0.0120  0.0023  0.0000  0.0000  0.0000  0.0000  0.0000 </r>
        <r>  0.0022  0.0253  0.0055  0.0010  0.0000  0.0000  0.0000  0.0000  0.0000 </r>
        <r>  0.0005  0.0058  0.0013  0.0042  0.0000  0.0000  0.0000  0.0000  0.0000 </r>
        <r>  0.0056  0.0212  0.0064  0.0012  0.0000  0.0000  0.0000  0.0000  0.0000 </r>
        <r>  0.0013  0.0048  0.0015  0.0055  0.0000  0.0000  0.0000  0.0000  0.0000 </r>
       </set>
       <set comment="band 26">
        <r>  0.0013  0.0048  0.0015  0.0055  0.0000  0.0000  0.0000  0.0000  0.0000 </r>
        <r>  0.0056  0.0212  0.0064  0.0012  0.0000  0.0000  0.0000  0.0000  0.0000 </r>
        <r>  0.0005  0.0058  0.0013  0.0042  0.0000  0.0000  0.0000  0.0000  0.0000 </r>
        <r>  0.0022  0.0253  0.0055  0.0010  0.0000  0.0000  0.0000  0.0000  0.0000 </r>
        <r>  0.0100  0.0662  0.0120  0.0023  0.0000  0.0000  0.0000  0.0000  0.0000 </r>
        <r>  0.0023  0.0150  0.0027  0.0101  0.0000  0.0000  0.0000  0.0000  0.0000 </r>
        <r>  0.0100  0.0662  0.0120  0.0023  0.0000  0.0000  0.0000  0.0000  0.0000 </r>
        <r>  0.0023  0.0150  0.0027  0.0101  0.0000  0.0000  0.0000  0.0000  0.0000 </r>
        <r>  0.0005  0.0058  0.0013  0.0042  0.0000  0.0000  0.0000  0.0000  0.0000 </r>
        <r>  0.0022  0.0253  0.0055  0.0010  0.0000  0.0000  0.0000  0.0000  0.0000 </r>
        <r>  0.0013  0.0048  0.0015  0.0055  0.0000  0.0000  0.0000  0.0000  0.0000 </r>
        <r>  0.0056  0.0212  0.0064  0.0012  0.0000  0.0000  0.0000  0.0000  0.0000 </r>
       </set>
       <set comment="band 27">
        <r>  0.0063  0.0474  0.0063  0.0036  0.0000  0.0000  0.0000  0.0000  0.0000 </r>
        <r>  0.0042  0.0315  0.0042  0.0054  0.0000  0.0000  0.0000  0.0000  0.0000 </r>
        <r>  0.0066  0.0421  0.0054  0.0032  0.0000  0.0000  0.0000  0.0000  0.0000 </r>
        <r>  0.0044  0.0280  0.0036  0.0048  0.0000  0.0000  0.0000  0.0000  0.0000 </r>
        <r>  0.0006  0.0026  0.0033  0.0036  0.0000  0.0000  0.0000  0.0000  0.0000 </r>
        <r>  0.0009  0.0040  0.0050  0.0024  0.0000  0.0000  0.0000  0.0000  0.0000 </r>
        <r>  0.0006  0.0026  0.0033  0.0036  0.0000  0.0000  0.0000  0.0000  0.0000 </r>
        <r>  0.0009  0.0040  0.0050  0.0024  0.0000  0.0000  0.0000  0.0000  0.0000 </r>
        <r>  0.0066  0.0421  0.0054  0.0032  0.0000  0.0000  0.0000  0.0000  0.0000 </r>
        <r>  0.0044  0.0280  0.0036  0.0048  0.0000  0.0000  0.0000  0.0000  0.0000 </r>
        <r>  0.0063  0.0474  0.0063  0.0036  0.0000  0.0000  0.0000  0.0000  0.0000 </r>
        <r>  0.0042  0.0315  0.0042  0.0054  0.0000  0.0000  0.0000  0.0000  0.0000 </r>
       </set>
       <set comment="band 28">
        <r>  0.0042  0.0315  0.0042  0.0054  0.0000  0.0000  0.0000  0.0000  0.0000 </r>
        <r>  0.0063  0.0474  0.0063  0.0036  0.0000  0.0000  0.0000  0.0000  0.0000 </r>
        <r>  0.0044  0.0280  0.0036  0.0048  0.0000  0.0000  0.0000  0.0000  0.0000 </r>
        <r>  0.0066  0.0421  0.0054  0.0032  0.0000  0.0000  0.0000  0.0000  0.0000 </r>
        <r>  0.0009  0.0040  0.0050  0.0024  0.0000  0.0000  0.0000  0.0000  0.0000 </r>
        <r>  0.0006  0.0026  0.0033  0.0036  0.0000  0.0000  0.0000  0.0000  0.0000 </r>
        <r>  0.0009  0.0040  0.0050  0.0024  0.0000  0.0000  0.0000  0.0000  0.0000 </r>
        <r>  0.0006  0.0026  0.0033  0.0036  0.0000  0.0000  0.0000  0.0000  0.0000 </r>
        <r>  0.0044  0.0280  0.0036  0.0048  0.0000  0.0000  0.0000  0.0000  0.0000 </r>
        <r>  0.0066  0.0421  0.0054  0.0032  0.0000  0.0000  0.0000  0.0000  0.0000 </r>
        <r>  0.0042  0.0315  0.0042  0.0054  0.0000  0.0000  0.0000  0.0000  0.0000 </r>
        <r>  0.0063  0.0474  0.0063  0.0036  0.0000  0.0000  0.0000  0.0000  0.0000 </r>
       </set>
       <set comment="band 29">
        <r>  0.0015  0.0093  0.0018  0.0063  0.0000  0.0000  0.0000  0.0000  0.0000 </r>
        <r>  0.0065  0.0413  0.0081  0.0014  0.0000  0.0000  0.0000  0.0000  0.0000 </r>
        <r>  0.0012  0.0093  0.0019  0.0072  0.0000  0.0000  0.0000  0.0000  0.0000 </r>
        <r>  0.0055  0.0414  0.0085  0.0016  0.0000  0.0000  0.0000  0.0000  0.0000 </r>
        <r>  0.0069  0.0517  0.0038  0.0008  0.0000  0.0000  0.0000  0.0000  0.0000 </r>
        <r>  0.0016  0.0116  0.0008  0.0036  0.0000  0.0000  0.0000  0.0000  0.0000 </r>
        <r>  0.0069  0.0517  0.0038  0.0008  0.0000  0.0000  0.0000  0.0000  0.0000 </r>
        <r>  0.0016  0.0116  0.0008  0.0036  0.0000  0.0000  0.0000  0.0000  0.0000 </r>
        <r>  0.0012  0.0093  0.0019  0.0072  0.0000  0.0000  0.0000  0.0000  0.0000 </r>
        <r>  0.0055  0.0414  0.0085  0.0016  0.0000  0.0000  0.0000  0.0000  0.0000 </r>
        <r>  0.0015  0.0093  0.0018  0.0063  0.0000  0.0000  0.0000  0.0000  0.0000 </r>
        <r>  0.0065  0.0413  0.0081  0.0014  0.0000  0.0000  0.0000  0.0000  0.0000 </r>
       </set>
       <set comment="band 30">
        <r>  0.0065  0.0413  0.0081  0.0014  0.0000  0.0000  0.0000  0.0000  0.0000 </r>
        <r>  0.0015  0.0093  0.0018  0.0063  0.0000  0.0000  0.0000  0.0000  0.0000 </r>
        <r>  0.0055  0.0414  0.0085  0.0016  0.0000  0.0000  0.0000  0.0000  0.0000 </r>
        <r>  0.0012  0.0093  0.0019  0.0072  0.0000  0.0000  0.0000  0.0000  0.0000 </r>
        <r>  0.0016  0.0116  0.0008  0.0036  0.0000  0.0000  0.0000  0.0000  0.0000 </r>
        <r>  0.0069  0.0517  0.0038  0.0008  0.0000  0.0000  0.0000  0.0000  0.0000 </r>
        <r>  0.0016  0.0116  0.0008  0.0036  0.0000  0.0000  0.0000  0.0000  0.0000 </r>
        <r>  0.0069  0.0517  0.0038  0.0008  0.0000  0.0000  0.0000  0.0000  0.0000 </r>
        <r>  0.0055  0.0414  0.0085  0.0016  0.0000  0.0000  0.0000  0.0000  0.0000 </r>
        <r>  0.0012  0.0093  0.0019  0.0072  0.0000  0.0000  0.0000  0.0000  0.0000 </r>
        <r>  0.0065  0.0413  0.0081  0.0014  0.0000  0.0000  0.0000  0.0000  0.0000 </r>
        <r>  0.0015  0.0093  0.0018  0.0063  0.0000  0.0000  0.0000  0.0000  0.0000 </r>
       </set>
       <set comment="band 31">
        <r>  0.0057  0.0223  0.0010  0.0025  0.0000  0.0000  0.0000  0.0000  0.0000 </r>
        <r>  0.0068  0.0265  0.0012  0.0021  0.0000  0.0000  0.0000  0.0000  0.0000 </r>
        <r>  0.0055  0.0220  0.0003  0.0020  0.0000  0.0000  0.0000  0.0000  0.0000 </r>
        <r>  0.0066  0.0262  0.0004  0.0017  0.0000  0.0000  0.0000  0.0000  0.0000 </r>
        <r>  0.0047  0.0050  0.0003  0.0005  0.0000  0.0000  0.0000  0.0000  0.0000 </r>
        <r>  0.0039  0.0042  0.0003  0.0006  0.0000  0.0000  0.0000  0.0000  0.0000 </r>
        <r>  0.0047  0.0050  0.0003  0.0005  0.0000  0.0000  0.0000  0.0000  0.0000 </r>
        <r>  0.0039  0.0042  0.0003  0.0006  0.0000  0.0000  0.0000  0.0000  0.0000 </r>
        <r>  0.0055  0.0220  0.0003  0.0020  0.0000  0.0000  0.0000  0.0000  0.0000 </r>
        <r>  0.0066  0.0262  0.0004  0.0017  0.0000  0.0000  0.0000  0.0000  0.0000 </r>
        <r>  0.0057  0.0223  0.0010  0.0025  0.0000  0.0000  0.0000  0.0000  0.0000 </r>
        <r>  0.0068  0.0265  0.0012  0.0021  0.0000  0.0000  0.0000  0.0000  0.0000 </r>
       </set>
       <set comment="band 32">
        <r>  0.0068  0.0265  0.0012  0.0021  0.0000  0.0000  0.0000  0.0000  0.0000 </r>
        <r>  0.0057  0.0223  0.0010  0.0025  0.0000  0.0000  0.0000  0.0000  0.0000 </r>
        <r>  0.0066  0.0262  0.0004  0.0017  0.0000  0.0000  0.0000  0.0000  0.0000 </r>
        <r>  0.0055  0.0220  0.0003  0.0020  0.0000  0.0000  0.0000  0.0000  0.0000 </r>
        <r>  0.0039  0.0042  0.0003  0.0006  0.0000  0.0000  0.0000  0.0000  0.0000 </r>
        <r>  0.0047  0.0050  0.0003  0.0005  0.0000  0.0000  0.0000  0.0000  0.0000 </r>
        <r>  0.0039  0.0042  0.0003  0.0006  0.0000  0.0000  0.0000  0.0000  0.0000 </r>
        <r>  0.0047  0.0050  0.0003  0.0005  0.0000  0.0000  0.0000  0.0000  0.0000 </r>
        <r>  0.0066  0.0262  0.0004  0.0017  0.0000  0.0000  0.0000  0.0000  0.0000 </r>
        <r>  0.0055  0.0220  0.0003  0.0020  0.0000  0.0000  0.0000  0.0000  0.0000 </r>
        <r>  0.0068  0.0265  0.0012  0.0021  0.0000  0.0000  0.0000  0.0000  0.0000 </r>
        <r>  0.0057  0.0223  0.0010  0.0025  0.0000  0.0000  0.0000  0.0000  0.0000 </r>
       </set>
       <set comment="band 33">
        <r>  0.0003  0.0041  0.0002  0.0002  0.0000  0.0000  0.0000  0.0000  0.0000 </r>
        <r>  0.0012  0.0174  0.0007  0.0000  0.0000  0.0000  0.0000  0.0000  0.0000 </r>
        <r>  0.0024  0.0002  0.0009  0.0027  0.0000  0.0000  0.0000  0.0000  0.0000 </r>
        <r>  0.0102  0.0010  0.0039  0.0006  0.0000  0.0000  0.0000  0.0000  0.0000 </r>
        <r>  0.0177  0.0734  0.0021  0.0015  0.0000  0.0000  0.0000  0.0000  0.0000 </r>
        <r>  0.0041  0.0172  0.0005  0.0066  0.0000  0.0000  0.0000  0.0000  0.0000 </r>
        <r>  0.0177  0.0734  0.0021  0.0015  0.0000  0.0000  0.0000  0.0000  0.0000 </r>
        <r>  0.0041  0.0172  0.0005  0.0066  0.0000  0.0000  0.0000  0.0000  0.0000 </r>
        <r>  0.0024  0.0002  0.0009  0.0027  0.0000  0.0000  0.0000  0.0000  0.0000 </r>
        <r>  0.0102  0.0010  0.0039  0.0006  0.0000  0.0000  0.0000  0.0000  0.0000 </r>
        <r>  0.0003  0.0041  0.0002  0.0002  0.0000  0.0000  0.0000  0.0000  0.0000 </r>
        <r>  0.0012  0.0174  0.0007  0.0000  0.0000  0.0000  0.0000  0.0000  0.0000 </r>
       </set>
       <set comment="band 34">
        <r>  0.0012  0.0174  0.0007  0.0000  0.0000  0.0000  0.0000  0.0000  0.0000 </r>
        <r>  0.0003  0.0041  0.0002  0.0002  0.0000  0.0000  0.0000  0.0000  0.0000 </r>
        <r>  0.0102  0.0010  0.0039  0.0006  0.0000  0.0000  0.0000  0.0000  0.0000 </r>
        <r>  0.0024  0.0002  0.0009  0.0027  0.0000  0.0000  0.0000  0.0000  0.0000 </r>
        <r>  0.0041  0.0172  0.0005  0.0066  0.0000  0.0000  0.0000  0.0000  0.0000 </r>
        <r>  0.0177  0.0734  0.0021  0.0015  0.0000  0.0000  0.0000  0.0000  0.0000 </r>
        <r>  0.0041  0.0172  0.0005  0.0066  0.0000  0.0000  0.0000  0.0000  0.0000 </r>
        <r>  0.0177  0.0734  0.0021  0.0015  0.0000  0.0000  0.0000  0.0000  0.0000 </r>
        <r>  0.0102  0.0010  0.0039  0.0006  0.0000  0.0000  0.0000  0.0000  0.0000 </r>
        <r>  0.0024  0.0002  0.0009  0.0027  0.0000  0.0000  0.0000  0.0000  0.0000 </r>
        <r>  0.0012  0.0174  0.0007  0.0000  0.0000  0.0000  0.0000  0.0000  0.0000 </r>
        <r>  0.0003  0.0041  0.0002  0.0002  0.0000  0.0000  0.0000  0.0000  0.0000 </r>
       </set>
       <set comment="band 35">
        <r>  0.0112  0.0392  0.0014  0.0006  0.0000  0.0000  0.0000  0.0000  0.0000 </r>
        <r>  0.0020  0.0071  0.0003  0.0032  0.0000  0.0000  0.0000  0.0000  0.0000 </r>
        <r>  0.0097  0.0468  0.0020  0.0006  0.0000  0.0000  0.0000  0.0000  0.0000 </r>
        <r>  0.0017  0.0084  0.0004  0.0035  0.0000  0.0000  0.0000  0.0000  0.0000 </r>
        <r>  0.0006  0.0015  0.0010  0.0012  0.0000  0.0000  0.0000  0.0000  0.0000 </r>
        <r>  0.0033  0.0086  0.0055  0.0002  0.0000  0.0000  0.0000  0.0000  0.0000 </r>
        <r>  0.0006  0.0015  0.0010  0.0012  0.0000  0.0000  0.0000  0.0000  0.0000 </r>
        <r>  0.0033  0.0086  0.0055  0.0002  0.0000  0.0000  0.0000  0.0000  0.0000 </r>
        <r>  0.0097  0.0468  0.0020  0.0006  0.0000  0.0000  0.0000  0.0000  0.0000 </r>
        <r>  0.0017  0.0084  0.0004  0.0035  0.0000  0.0000  0.0000  0.0000  0.0000 </r>
        <r>  0.0112  0.0392  0.0014  0.0006  0.0000  0.0000  0.0000  0.0000  0.0000 </r>
        <r>  0.0020  0.0071  0.0003  0.0032  0.0000  0.0000  0.0000  0.0000  0.0000 </r>
       </set>
       <set comment="band 36">
        <r>  0.0020  0.0071  0.0003  0.0032  0.0000  0.0000  0.0000  0.0000  0.0000 </r>
        <r>  0.0112  0.0392  0.0014  0.0006  0.0000  0.0000  0.0000  0.0000  0.0000 </r>
        <r>  0.0017  0.0084  0.0004  0.0035  0.0000  0.0000  0.0000  0.0000  0.0000 </r>
        <r>  0.0097  0.0468  0.0020  0.0006  0.0000  0.0000  0.0000  0.0000  0.0000 </r>
        <r>  0.0033  0.0086  0.0055  0.0002  0.0000  0.0000  0.0000  0.0000  0.0000 </r>
        <r>  0.0006  0.0015  0.0010  0.0012  0.0000  0.0000  0.0000  0.0000  0.0000 </r>
        <r>  0.0033  0.0086  0.0055  0.0002  0.0000  0.0000  0.0000  0.0000  0.0000 </r>
        <r>  0.0006  0.0015  0.0010  0.0012  0.0000  0.0000  0.0000  0.0000  0.0000 </r>
        <r>  0.0017  0.0084  0.0004  0.0035  0.0000  0.0000  0.0000  0.0000  0.0000 </r>
        <r>  0.0097  0.0468  0.0020  0.0006  0.0000  0.0000  0.0000  0.0000  0.0000 </r>
        <r>  0.0020  0.0071  0.0003  0.0032  0.0000  0.0000  0.0000  0.0000  0.0000 </r>
        <r>  0.0112  0.0392  0.0014  0.0006  0.0000  0.0000  0.0000  0.0000  0.0000 </r>
       </set>
       <set comment="band 37">
        <r>  0.0009  0.0000  0.0075  0.0074  0.0000  0.0000  0.0000  0.0000  0.0000 </r>
        <r>  0.0013  0.0000  0.0124  0.0047  0.0000  0.0000  0.0000  0.0000  0.0000 </r>
        <r>  0.0005  0.0009  0.0097  0.0079  0.0000  0.0000  0.0000  0.0000  0.0000 </r>
        <r>  0.0007  0.0012  0.0162  0.0050  0.0000  0.0000  0.0000  0.0000  0.0000 </r>
        <r>  0.0026  0.0006  0.0388  0.0167  0.0000  0.0000  0.0000  0.0000  0.0000 </r>
        <r>  0.0021  0.0005  0.0330  0.0201  0.0000  0.0000  0.0000  0.0000  0.0000 </r>
        <r>  0.0026  0.0008  0.0394  0.0167  0.0000  0.0000  0.0000  0.0000  0.0000 </r>
        <r>  0.0021  0.0006  0.0335  0.0201  0.0000  0.0000  0.0000  0.0000  0.0000 </r>
        <r>  0.0005  0.0008  0.0087  0.0077  0.0000  0.0000  0.0000  0.0000  0.0000 </r>
        <r>  0.0008  0.0010  0.0153  0.0046  0.0000  0.0000  0.0000  0.0000  0.0000 </r>
        <r>  0.0008  0.0000  0.0070  0.0072  0.0000  0.0000  0.0000  0.0000  0.0000 </r>
        <r>  0.0013  0.0001  0.0122  0.0043  0.0000  0.0000  0.0000  0.0000  0.0000 </r>
       </set>
       <set comment="band 38">
        <r>  0.0010  0.0001  0.0083  0.0077  0.0000  0.0000  0.0000  0.0000  0.0000 </r>
        <r>  0.0015  0.0002  0.0141  0.0048  0.0000  0.0000  0.0000  0.0000  0.0000 </r>
        <r>  0.0007  0.0007  0.0089  0.0079  0.0000  0.0000  0.0000  0.0000  0.0000 </r>
        <r>  0.0010  0.0008  0.0151  0.0050  0.0000  0.0000  0.0000  0.0000  0.0000 </r>
        <r>  0.0017  0.0009  0.0315  0.0206  0.0000  0.0000  0.0000  0.0000  0.0000 </r>
        <r>  0.0026  0.0009  0.0413  0.0154  0.0000  0.0000  0.0000  0.0000  0.0000 </r>
        <r>  0.0020  0.0004  0.0302  0.0206  0.0000  0.0000  0.0000  0.0000  0.0000 </r>
        <r>  0.0026  0.0005  0.0400  0.0158  0.0000  0.0000  0.0000  0.0000  0.0000 </r>
        <r>  0.0009  0.0015  0.0197  0.0029  0.0000  0.0000  0.0000  0.0000  0.0000 </r>
        <r>  0.0003  0.0008  0.0051  0.0096  0.0000  0.0000  0.0000  0.0000  0.0000 </r>
        <r>  0.0015  0.0000  0.0150  0.0026  0.0000  0.0000  0.0000  0.0000  0.0000 </r>
        <r>  0.0006  0.0000  0.0036  0.0090  0.0000  0.0000  0.0000  0.0000  0.0000 </r>
       </set>
       <set comment="band 39">
        <r>  0.0024  0.0005  0.0349  0.0130  0.0000  0.0000  0.0000  0.0000  0.0000 </r>
        <r>  0.0020  0.0004  0.0286  0.0156  0.0000  0.0000  0.0000  0.0000  0.0000 </r>
        <r>  0.0019  0.0002  0.0360  0.0133  0.0000  0.0000  0.0000  0.0000  0.0000 </r>
        <r>  0.0015  0.0003  0.0299  0.0159  0.0000  0.0000  0.0000  0.0000  0.0000 </r>
        <r>  0.0003  0.0003  0.0006  0.0001  0.0000  0.0000  0.0000  0.0000  0.0000 </r>
        <r>  0.0003  0.0005  0.0001  0.0002  0.0000  0.0000  0.0000  0.0000  0.0000 </r>
        <r>  0.0003  0.0003  0.0007  0.0001  0.0000  0.0000  0.0000  0.0000  0.0000 </r>
        <r>  0.0002  0.0004  0.0004  0.0002  0.0000  0.0000  0.0000  0.0000  0.0000 </r>
        <r>  0.0016  0.0003  0.0294  0.0125  0.0000  0.0000  0.0000  0.0000  0.0000 </r>
        <r>  0.0015  0.0003  0.0280  0.0134  0.0000  0.0000  0.0000  0.0000  0.0000 </r>
        <r>  0.0021  0.0004  0.0287  0.0123  0.0000  0.0000  0.0000  0.0000  0.0000 </r>
        <r>  0.0019  0.0003  0.0268  0.0131  0.0000  0.0000  0.0000  0.0000  0.0000 </r>
       </set>
       <set comment="band 40">
        <r>  0.0016  0.0005  0.0224  0.0033  0.0000  0.0000  0.0000  0.0000  0.0000 </r>
        <r>  0.0004  0.0000  0.0059  0.0095  0.0000  0.0000  0.0000  0.0000  0.0000 </r>
        <r>  0.0015  0.0000  0.0220  0.0033  0.0000  0.0000  0.0000  0.0000  0.0000 </r>
        <r>  0.0002  0.0007  0.0079  0.0100  0.0000  0.0000  0.0000  0.0000  0.0000 </r>
        <r>  0.0005  0.0001  0.0139  0.0011  0.0000  0.0000  0.0000  0.0000  0.0000 </r>
        <r>  0.0000  0.0008  0.0036  0.0042  0.0000  0.0000  0.0000  0.0000  0.0000 </r>
        <r>  0.0010  0.0006  0.0116  0.0011  0.0000  0.0000  0.0000  0.0000  0.0000 </r>
        <r>  0.0002  0.0008  0.0025  0.0042  0.0000  0.0000  0.0000  0.0000  0.0000 </r>
        <r>  0.0016  0.0000  0.0265  0.0212  0.0000  0.0000  0.0000  0.0000  0.0000 </r>
        <r>  0.0022  0.0008  0.0535  0.0115  0.0000  0.0000  0.0000  0.0000  0.0000 </r>
        <r>  0.0017  0.0007  0.0265  0.0210  0.0000  0.0000  0.0000  0.0000  0.0000 </r>
        <r>  0.0026  0.0008  0.0486  0.0107  0.0000  0.0000  0.0000  0.0000  0.0000 </r>
       </set>
      </set>
     </set>
    </set>
   </array>
  </projected>
 </calculation>
 <structure name="finalpos" >
  <crystal>
   <varray name="basis" >
    <v>       3.34288600       0.00000000       0.00000000 </v>
    <v>       0.00000000      32.60240900       0.00000000 </v>
    <v>       0.00000000       0.00000000       4.37483100 </v>
   </varray>
   <i name="volume">    476.79592902 </i>
   <varray name="rec_basis" >
    <v>       0.29914272       0.00000000       0.00000000 </v>
    <v>       0.00000000       0.03067258       0.00000000 </v>
    <v>       0.00000000       0.00000000       0.22858026 </v>
   </varray>
  </crystal>
  <varray name="positions" >
   <v>       0.00000000       0.30672600       0.91892400 </v>
   <v>       0.50000000       0.30672600       0.58107600 </v>
   <v>       0.00000000       0.37246700       0.08107600 </v>
   <v>       0.50000000       0.37246700       0.41892400 </v>
   <v>       0.50000000       0.46712900       0.91892400 </v>
   <v>       0.00000000       0.46712900       0.58107600 </v>
   <v>       0.50000000       0.53287100       0.08107600 </v>
   <v>       0.00000000       0.53287100       0.41892400 </v>
   <v>       0.00000000       0.62753300       0.91892400 </v>
   <v>       0.50000000       0.62753300       0.58107600 </v>
   <v>       0.00000000       0.69327400       0.08107600 </v>
   <v>       0.50000000       0.69327400       0.41892400 </v>
  </varray>
 </structure>
</modeling>
