 vasp.5.4.4.18Apr17-6-g9f103f2a35 (build Jun 20 2017 18:00:50) complex          
  
 executed on             LinuxIFC date 2018.03.16  15:57:48
 running on   32 total cores
 distrk:  each k-point on   32 cores,    1 groups
 distr:  one band on NCORES_PER_BAND=   8 cores,    4 groups


--------------------------------------------------------------------------------------------------------


 INCAR:
 POTCAR:    PAW_PBE P 06Sep2000                   
 POTCAR:    PAW_PBE P 06Sep2000                   
   VRHFIN =P : s2p3                                                             
   LEXCH  = PE                                                                  
   EATOM  =   176.0430 eV,   12.9388 Ry                                         
                                                                                
   TITEL  = PAW_PBE P 06Sep2000                                                 
   LULTRA =        F    use ultrasoft PP ?                                      
   IUNSCR =        1    unscreen: 0-lin 1-nonlin 2-no                           
   RPACOR =    1.500    partial core radius                                     
   POMASS =   30.974; ZVAL   =    5.000    mass and valenz                      
   RCORE  =    1.900    outmost cutoff radius                                   
   RWIGS  =    2.330; RWIGS  =    1.233    wigner-seitz radius (au A)           
   ENMAX  =  255.040; ENMIN  =  191.280 eV                                      
   ICORE  =        2    local potential                                         
   LCOR   =        T    correct aug charges                                     
   LPAW   =        T    paw PP                                                  
   EAUG   =  342.924                                                            
   DEXC   =    0.000                                                            
   RMAX   =    1.935    core radius for proj-oper                               
   RAUG   =    1.300    factor for augmentation sphere                          
   RDEP   =    1.931    radius for radial grids                                 
   RDEPT  =    1.794    core radius for aug-charge                              
                                                                                
   Atomic configuration                                                         
    6 entries                                                                   
     n  l   j            E        occ.                                          
     1  0  0.50     -2084.0982   2.0000                                         
     2  0  0.50      -173.9859   2.0000                                         
     2  1  1.50      -124.4865   6.0000                                         
     3  0  0.50       -13.9692   2.0000                                         
     3  1  0.50        -5.5067   3.0000                                         
     3  2  1.50        -5.4423   0.0000                                         
   Description                                                                  
     l       E           TYP  RCUT    TYP  RCUT                                 
     0    -13.9691527     23  1.900                                             
     0    -11.7794650     23  1.900                                             
     1     -5.5066937     23  1.900                                             
     1     -0.2556953     23  1.900                                             
     2     -5.4423304     23  1.900                                             
  local pseudopotential read in
  partial core-charges read in
  partial kinetic energy density read in
  atomic valenz-charges read in
  non local Contribution for L=           0  read in
    real space projection operators read in
  non local Contribution for L=           0  read in
    real space projection operators read in
  non local Contribution for L=           1  read in
    real space projection operators read in
  non local Contribution for L=           1  read in
    real space projection operators read in
    PAW grid and wavefunctions read in
 
   number of l-projection  operators is LMAX  =           4
   number of lm-projection operators is LMMAX =           8
 
  PAW_PBE P 06Sep2000                   :
 energy of atom  1       EATOM= -176.0430
 kinetic energy error for atom=    0.0023 (will be added to EATOM!!)
 
 
 POSCAR: P12                                     
  positions in direct lattice
  No initial velocities read in
 exchange correlation table for  LEXCH =        8
   RHO(1)=    0.500       N(1)  =     2000
   RHO(2)=  100.500       N(2)  =     4000
 


--------------------------------------------------------------------------------------------------------


 ion  position               nearest neighbor table
   1  0.000  0.307  0.919-   2 2.23   2 2.23   3 2.26
   2  0.500  0.307  0.581-   1 2.23   1 2.23   4 2.26
   3  0.000  0.372  0.081-   4 2.23   4 2.23   1 2.26
   4  0.500  0.372  0.419-   3 2.23   3 2.23   2 2.26
   5  0.500  0.467  0.919-   6 2.23   6 2.23   7 2.26
   6  0.000  0.467  0.581-   5 2.23   5 2.23   8 2.26
   7  0.500  0.533  0.081-   8 2.23   8 2.23   5 2.26
   8  0.000  0.533  0.419-   7 2.23   7 2.23   6 2.26
   9  0.000  0.628  0.919-  10 2.23  10 2.23  11 2.26
  10  0.500  0.628  0.581-   9 2.23   9 2.23  12 2.26
  11  0.000  0.693  0.081-  12 2.23  12 2.23   9 2.26
  12  0.500  0.693  0.419-  11 2.23  11 2.23  10 2.26
 
  LATTYP: Found a simple orthorhombic cell.
 ALAT       =     3.3428860000
 B/A-ratio  =     1.3086988309
 C/A-ratio  =     9.7527732026
  
  Lattice vectors:
  
 A1 = (  -3.3428860000,   0.0000000000,   0.0000000000)
 A2 = (   0.0000000000,   0.0000000000,  -4.3748310000)
 A3 = (   0.0000000000, -32.6024090000,   0.0000000000)


Analysis of symmetry for initial positions (statically):
=====================================================================
 Subroutine PRICEL returns:
 Original cell was already a primitive cell.
 

 Routine SETGRP: Setting up the symmetry group for a 
 simple orthorhombic supercell.


 Subroutine GETGRP returns: Found  8 space group operations
 (whereof  4 operations were pure point group operations)
 out of a pool of  8 trial point group operations.


The static configuration has the point symmetry C_2h.
 The point group associated with its full space group is D_2h.


Analysis of symmetry for dynamics (positions and initial velocities):
=====================================================================
 Subroutine PRICEL returns:
 Original cell was already a primitive cell.
 

 Routine SETGRP: Setting up the symmetry group for a 
 simple orthorhombic supercell.


 Subroutine GETGRP returns: Found  8 space group operations
 (whereof  4 operations were pure point group operations)
 out of a pool of  8 trial point group operations.


The dynamic configuration has the point symmetry C_2h.
 The point group associated with its full space group is D_2h.


 Subroutine INISYM returns: Found  8 space group operations
 (whereof  4 operations are pure point group operations),
 and found     1 'primitive' translations

 
 
 KPOINTS: Automatic mesh                          

Automatic generation of k-mesh.
Space group operators:
 irot       det(A)        alpha          n_x          n_y          n_z        tau_x        tau_y        tau_z
    1     1.000000     0.000001     1.000000     0.000000     0.000000     0.000000     0.000000     0.000000
    2    -1.000000     0.000001     1.000000     0.000000     0.000000     0.000000     0.000000     0.000000
    3     1.000000   179.999999     1.000000     0.000000     0.000000     0.000000     0.000000     0.000000
    4    -1.000000   179.999999     1.000000     0.000000     0.000000     0.000000     0.000000     0.000000
    5     1.000000   179.999999     0.000000     1.000000     0.000000    -0.500000     0.000000    -0.500000
    6    -1.000000   179.999999     0.000000     1.000000     0.000000    -0.500000     0.000000    -0.500000
    7     1.000000   179.999999     0.000000     0.000000     1.000000    -0.500000     0.000000    -0.500000
    8    -1.000000   179.999999     0.000000     0.000000     1.000000    -0.500000     0.000000    -0.500000
 
 Subroutine IBZKPT returns following result:
 ===========================================
 
 Found     32 irreducible k-points:
 
 Following reciprocal coordinates:
            Coordinates               Weight
  0.000000  0.000000  0.000000      1.000000
  0.142857  0.000000  0.000000      2.000000
  0.285714  0.000000  0.000000      2.000000
  0.428571  0.000000  0.000000      2.000000
  0.000000  0.500000  0.000000      1.000000
  0.142857  0.500000  0.000000      2.000000
  0.285714  0.500000  0.000000      2.000000
  0.428571  0.500000  0.000000      2.000000
  0.000000  0.000000  0.166667      2.000000
  0.142857  0.000000  0.166667      4.000000
  0.285714  0.000000  0.166667      4.000000
  0.428571  0.000000  0.166667      4.000000
  0.000000  0.500000  0.166667      2.000000
  0.142857  0.500000  0.166667      4.000000
  0.285714  0.500000  0.166667      4.000000
  0.428571  0.500000  0.166667      4.000000
  0.000000  0.000000  0.333333      2.000000
  0.142857  0.000000  0.333333      4.000000
  0.285714  0.000000  0.333333      4.000000
  0.428571  0.000000  0.333333      4.000000
  0.000000  0.500000  0.333333      2.000000
  0.142857  0.500000  0.333333      4.000000
  0.285714  0.500000  0.333333      4.000000
  0.428571  0.500000  0.333333      4.000000
  0.000000  0.000000  0.500000      1.000000
  0.142857  0.000000  0.500000      2.000000
  0.285714  0.000000  0.500000      2.000000
  0.428571  0.000000  0.500000      2.000000
  0.000000  0.500000  0.500000      1.000000
  0.142857  0.500000  0.500000      2.000000
  0.285714  0.500000  0.500000      2.000000
  0.428571  0.500000  0.500000      2.000000
 
 Following cartesian coordinates:
            Coordinates               Weight
  0.000000  0.000000  0.000000      1.000000
  0.042735  0.000000  0.000000      2.000000
  0.085469  0.000000  0.000000      2.000000
  0.128204  0.000000  0.000000      2.000000
  0.000000  0.015336  0.000000      1.000000
  0.042735  0.015336  0.000000      2.000000
  0.085469  0.015336  0.000000      2.000000
  0.128204  0.015336  0.000000      2.000000
  0.000000  0.000000  0.038097      2.000000
  0.042735  0.000000  0.038097      4.000000
  0.085469  0.000000  0.038097      4.000000
  0.128204  0.000000  0.038097      4.000000
  0.000000  0.015336  0.038097      2.000000
  0.042735  0.015336  0.038097      4.000000
  0.085469  0.015336  0.038097      4.000000
  0.128204  0.015336  0.038097      4.000000
  0.000000  0.000000  0.076193      2.000000
  0.042735  0.000000  0.076193      4.000000
  0.085469  0.000000  0.076193      4.000000
  0.128204  0.000000  0.076193      4.000000
  0.000000  0.015336  0.076193      2.000000
  0.042735  0.015336  0.076193      4.000000
  0.085469  0.015336  0.076193      4.000000
  0.128204  0.015336  0.076193      4.000000
  0.000000  0.000000  0.114290      1.000000
  0.042735  0.000000  0.114290      2.000000
  0.085469  0.000000  0.114290      2.000000
  0.128204  0.000000  0.114290      2.000000
  0.000000  0.015336  0.114290      1.000000
  0.042735  0.015336  0.114290      2.000000
  0.085469  0.015336  0.114290      2.000000
  0.128204  0.015336  0.114290      2.000000
 


--------------------------------------------------------------------------------------------------------




 Dimension of arrays:
   k-points           NKPTS =     32   k-points in BZ     NKDIM =     32   number of bands    NBANDS=     40
   number of dos      NEDOS =   2000   number of ions     NIONS =     12
   non local maximal  LDIM  =      4   non local SUM 2l+1 LMDIM =      8
   total plane-waves  NPLWV =  61440
   max r-space proj   IRMAX =      1   max aug-charges    IRDMAX=   4120
   dimension x,y,z NGX =    16 NGY =  160 NGZ =   24
   dimension x,y,z NGXF=    32 NGYF=  320 NGZF=   48
   support grid    NGXF=    32 NGYF=  320 NGZF=   48
   ions per type =              12
   NGX,Y,Z   is equivalent  to a cutoff of   7.96,  8.16,  9.12 a.u.
   NGXF,Y,Z  is equivalent  to a cutoff of  15.91, 16.32, 18.24 a.u.

 SYSTEM =  Generic Input                           
 POSCAR =  P12                                     

 Startparameter for this run:
   NWRITE =      2    write-flag & timer
   PREC   = normal    normal or accurate (medium, high low for compatibility)
   ISTART =      0    job   : 0-new  1-cont  2-samecut
   ICHARG =      2    charge: 1-file 2-atom 10-const
   ISPIN  =      1    spin polarized calculation?
   LNONCOLLINEAR =      F non collinear calculations
   LSORBIT =      F    spin-orbit coupling
   INIWAV =      1    electr: 0-lowe 1-rand  2-diag
   LASPH  =      T    aspherical Exc in radial PAW
   METAGGA=      F    non-selfconsistent MetaGGA calc.

 Electronic Relaxation 1
   ENCUT  =  400.0 eV  29.40 Ry    5.42 a.u.   5.45 53.17  7.13*2*pi/ulx,y,z
   ENINI  =  400.0     initial cutoff
   ENAUG  =  342.9 eV  augmentation charge cutoff
   NELM   =    200;   NELMIN=  2; NELMDL=  0     # of ELM steps 
   EDIFF  = 0.1E-04   stopping-criterion for ELM
   LREAL  =      F    real-space projection
   NLSPLINE    = F    spline interpolate recip. space projectors
   LCOMPAT=      F    compatible to vasp.4.4
   GGA_COMPAT  = T    GGA compatible to vasp.4.4-vasp.4.6
   LMAXPAW     = -100 max onsite density
   LMAXMIX     =    2 max onsite mixed and CHGCAR
   VOSKOWN=      0    Vosko Wilk Nusair interpolation
   ROPT   =    0.00000
 Ionic relaxation
   EDIFFG = -.2E-01   stopping-criterion for IOM
   NSW    =      0    number of steps for IOM
   NBLOCK =      1;   KBLOCK =      1    inner block; outer block 
   IBRION =     -1    ionic relax: 0-MD 1-quasi-New 2-CG
   NFREE  =      1    steps in history (QN), initial steepest desc. (CG)
   ISIF   =      3    stress and relaxation
   IWAVPR =     11    prediction:  0-non 1-charg 2-wave 3-comb
   ISYM   =      2    0-nonsym 1-usesym 2-fastsym
   LCORR  =      T    Harris-Foulkes like correction to forces

   POTIM  = 0.5000    time-step for ionic-motion
   TEIN   =    0.0    initial temperature
   TEBEG  =    0.0;   TEEND  =   0.0 temperature during run
   SMASS  =  -3.00    Nose mass-parameter (am)
   estimated Nose-frequenzy (Omega)   =  0.10E-29 period in steps =****** mass=  -0.255E-27a.u.
   SCALEE = 1.0000    scale energy and forces
   NPACO  =    256;   APACO  = 16.0  distance and # of slots for P.C.
   PSTRESS=    0.0 pullay stress

  Mass of Ions in am
   POMASS =  30.97
  Ionic Valenz
   ZVAL   =   5.00
  Atomic Wigner-Seitz radii
   RWIGS  =  -1.00
  virtual crystal weights 
   VCA    =   1.00
   NELECT =      60.0000    total number of electrons
   NUPDOWN=      -1.0000    fix difference up-down

 DOS related values:
   EMIN   =  10.00;   EMAX   =-10.00  energy-range for DOS
   EFERMI =   0.00
   ISMEAR =     0;   SIGMA  =   0.01  broadening in eV -4-tet -1-fermi 0-gaus

 Electronic relaxation 2 (details)
   IALGO  =     38    algorithm
   LDIAG  =      T    sub-space diagonalisation (order eigenvalues)
   LSUBROT=      F    optimize rotation matrix (better conditioning)
   TURBO    =      0    0=normal 1=particle mesh
   IRESTART =      0    0=no restart 2=restart with 2 vectors
   NREBOOT  =      0    no. of reboots
   NMIN     =      0    reboot dimension
   EREF     =   0.00    reference energy to select bands
   IMIX   =      4    mixing-type and parameters
     AMIX     =   0.40;   BMIX     =  1.00
     AMIX_MAG =   1.60;   BMIX_MAG =  1.00
     AMIN     =   0.10
     WC   =   100.;   INIMIX=   1;  MIXPRE=   1;  MAXMIX= -45

 Intra band minimization:
   WEIMIN = 0.0000     energy-eigenvalue tresh-hold
   EBREAK =  0.63E-07  absolut break condition
   DEPER  =   0.30     relativ break condition  

   TIME   =   0.40     timestep for ELM

  volume/ion in A,a.u.               =      39.73       268.13
  Fermi-wavevector in a.u.,A,eV,Ry     =   0.820379  1.550291  9.157011  0.673021
  Thomas-Fermi vector in A             =   1.931350
 
 Write flags
   LWAVE        =      T    write WAVECAR
   LDOWNSAMPLE  =      F    k-point downsampling of WAVECAR
   LCHARG       =      T    write CHGCAR
   LVTOT        =      F    write LOCPOT, total local potential
   LVHAR        =      T    write LOCPOT, Hartree potential only
   LELF         =      F    write electronic localiz. function (ELF)
   LORBIT       =     11    0 simple, 1 ext, 2 COOP (PROOUT), +10 PAW based schemes


 Dipole corrections
   LMONO  =      F    monopole corrections only (constant potential shift)
   LDIPOL =      F    correct potential (dipole corrections)
   IDIPOL =      0    1-x, 2-y, 3-z, 4-all directions 
   EPSILON=  1.0000000 bulk dielectric constant

 Core level calculations are selected ICORELEVEL =  1
 Exchange correlation treatment:
   GGA     =    PE    GGA type
   LEXCH   =     8    internal setting for exchange type
   VOSKOWN=      0    Vosko Wilk Nusair interpolation
   LHFCALC =     F    Hartree Fock is set to
   LHFONE  =     F    Hartree Fock one center treatment
   AEXX    =    0.0000 exact exchange contribution

 Linear response parameters
   LEPSILON=     F    determine dielectric tensor
   LRPA    =     F    only Hartree local field effects (RPA)
   LNABLA  =     F    use nabla operator in PAW spheres
   LVEL    =     F    velocity operator in full k-point grid
   LINTERFAST=   F  fast interpolation
   KINTER  =     0    interpolate to denser k-point grid
   CSHIFT  =0.1000    complex shift for real part using Kramers Kronig
   OMEGAMAX=  -1.0    maximum frequency
   DEG_THRESHOLD= 0.2000000E-02 threshold for treating states as degnerate
   RTIME   =   -0.100 relaxation time in fs
  (WPLASMAI=    0.000 imaginary part of plasma frequency in eV, 0.658/RTIME)
   DFIELD  = 0.0000000 0.0000000 0.0000000 field for delta impulse in time
 
 Orbital magnetization related:
   ORBITALMAG=     F  switch on orbital magnetization
   LCHIMAG   =     F  perturbation theory with respect to B field
   DQ        =  0.001000  dq finite difference perturbation B field
   LLRAUG    =     F  two centre corrections for induced B field



--------------------------------------------------------------------------------------------------------


 Static calculation
 charge density and potential will be updated during run
 non-spin polarized calculation
 Variant of blocked Davidson
 Davidson routine will perform the subspace rotation
 perform sub-space diagonalisation
    after iterative eigenvector-optimisation
 modified Broyden-mixing scheme, WC =      100.0
 initial mixing is a Kerker type mixing with AMIX =  0.4000 and BMIX =      1.0000
 Hartree-type preconditioning will be used
 using additional bands           10
 reciprocal scheme for non local part
 use partial core corrections
 calculate Harris-corrections to forces 
   (improved forces if not selfconsistent)
 use gradient corrections 
 use of overlap-Matrix (Vanderbilt PP)
 Gauss-broadening in eV      SIGMA  =   0.01


--------------------------------------------------------------------------------------------------------


  energy-cutoff  :      400.00
  volume of cell :      476.80
      direct lattice vectors                 reciprocal lattice vectors
     3.342886000  0.000000000  0.000000000     0.299142717  0.000000000  0.000000000
     0.000000000 32.602409000  0.000000000     0.000000000  0.030672580  0.000000000
     0.000000000  0.000000000  4.374831000     0.000000000  0.000000000  0.228580258

  length of vectors
     3.342886000 32.602409000  4.374831000     0.299142717  0.030672580  0.228580258


 
 k-points in units of 2pi/SCALE and weight: Automatic mesh                          
   0.00000000  0.00000000  0.00000000       0.012
   0.04273467  0.00000000  0.00000000       0.024
   0.08546935  0.00000000  0.00000000       0.024
   0.12820402  0.00000000  0.00000000       0.024
   0.00000000  0.01533629  0.00000000       0.012
   0.04273467  0.01533629  0.00000000       0.024
   0.08546935  0.01533629  0.00000000       0.024
   0.12820402  0.01533629  0.00000000       0.024
   0.00000000  0.00000000  0.03809671       0.024
   0.04273467  0.00000000  0.03809671       0.048
   0.08546935  0.00000000  0.03809671       0.048
   0.12820402  0.00000000  0.03809671       0.048
   0.00000000  0.01533629  0.03809671       0.024
   0.04273467  0.01533629  0.03809671       0.048
   0.08546935  0.01533629  0.03809671       0.048
   0.12820402  0.01533629  0.03809671       0.048
   0.00000000  0.00000000  0.07619342       0.024
   0.04273467  0.00000000  0.07619342       0.048
   0.08546935  0.00000000  0.07619342       0.048
   0.12820402  0.00000000  0.07619342       0.048
   0.00000000  0.01533629  0.07619342       0.024
   0.04273467  0.01533629  0.07619342       0.048
   0.08546935  0.01533629  0.07619342       0.048
   0.12820402  0.01533629  0.07619342       0.048
   0.00000000  0.00000000  0.11429013       0.012
   0.04273467  0.00000000  0.11429013       0.024
   0.08546935  0.00000000  0.11429013       0.024
   0.12820402  0.00000000  0.11429013       0.024
   0.00000000  0.01533629  0.11429013       0.012
   0.04273467  0.01533629  0.11429013       0.024
   0.08546935  0.01533629  0.11429013       0.024
   0.12820402  0.01533629  0.11429013       0.024
 
 k-points in reciprocal lattice and weights: Automatic mesh                          
   0.00000000  0.00000000  0.00000000       0.012
   0.14285714  0.00000000  0.00000000       0.024
   0.28571429  0.00000000  0.00000000       0.024
   0.42857143  0.00000000  0.00000000       0.024
   0.00000000  0.50000000  0.00000000       0.012
   0.14285714  0.50000000  0.00000000       0.024
   0.28571429  0.50000000  0.00000000       0.024
   0.42857143  0.50000000  0.00000000       0.024
   0.00000000  0.00000000  0.16666667       0.024
   0.14285714  0.00000000  0.16666667       0.048
   0.28571429  0.00000000  0.16666667       0.048
   0.42857143  0.00000000  0.16666667       0.048
   0.00000000  0.50000000  0.16666667       0.024
   0.14285714  0.50000000  0.16666667       0.048
   0.28571429  0.50000000  0.16666667       0.048
   0.42857143  0.50000000  0.16666667       0.048
   0.00000000  0.00000000  0.33333333       0.024
   0.14285714  0.00000000  0.33333333       0.048
   0.28571429  0.00000000  0.33333333       0.048
   0.42857143  0.00000000  0.33333333       0.048
   0.00000000  0.50000000  0.33333333       0.024
   0.14285714  0.50000000  0.33333333       0.048
   0.28571429  0.50000000  0.33333333       0.048
   0.42857143  0.50000000  0.33333333       0.048
   0.00000000  0.00000000  0.50000000       0.012
   0.14285714  0.00000000  0.50000000       0.024
   0.28571429  0.00000000  0.50000000       0.024
   0.42857143  0.00000000  0.50000000       0.024
   0.00000000  0.50000000  0.50000000       0.012
   0.14285714  0.50000000  0.50000000       0.024
   0.28571429  0.50000000  0.50000000       0.024
   0.42857143  0.50000000  0.50000000       0.024
 
 position of ions in fractional coordinates (direct lattice) 
   0.00000000  0.30672600  0.91892400
   0.50000000  0.30672600  0.58107600
   0.00000000  0.37246700  0.08107600
   0.50000000  0.37246700  0.41892400
   0.50000000  0.46712900  0.91892400
   0.00000000  0.46712900  0.58107600
   0.50000000  0.53287100  0.08107600
   0.00000000  0.53287100  0.41892400
   0.00000000  0.62753300  0.91892400
   0.50000000  0.62753300  0.58107600
   0.00000000  0.69327400  0.08107600
   0.50000000  0.69327400  0.41892400
 
 position of ions in cartesian coordinates  (Angst):
   0.00000000 10.00000650  4.02013720
   1.67144300 10.00000650  2.54210930
   0.00000000 12.14332147  0.35469380
   1.67144300 12.14332147  1.83272170
   1.67144300 15.22953071  4.02013720
   0.00000000 15.22953071  2.54210930
   1.67144300 17.37287829  0.35469380
   0.00000000 17.37287829  1.83272170
   0.00000000 20.45908753  4.02013720
   1.67144300 20.45908753  2.54210930
   0.00000000 22.60240250  0.35469380
   1.67144300 22.60240250  1.83272170
 


--------------------------------------------------------------------------------------------------------


 k-point  1 :   0.0000 0.0000 0.0000  plane waves:    8627
 k-point  2 :   0.1429 0.0000 0.0000  plane waves:    8663
 k-point  3 :   0.2857 0.0000 0.0000  plane waves:    8673
 k-point  4 :   0.4286 0.0000 0.0000  plane waves:    8635
 k-point  5 :   0.0000 0.5000 0.0000  plane waves:    8598
 k-point  6 :   0.1429 0.5000 0.0000  plane waves:    8676
 k-point  7 :   0.2857 0.5000 0.0000  plane waves:    8680
 k-point  8 :   0.4286 0.5000 0.0000  plane waves:    8618
 k-point  9 :   0.0000 0.0000 0.1667  plane waves:    8668
 k-point 10 :   0.1429 0.0000 0.1667  plane waves:    8676
 k-point 11 :   0.2857 0.0000 0.1667  plane waves:    8646
 k-point 12 :   0.4286 0.0000 0.1667  plane waves:    8612
 k-point 13 :   0.0000 0.5000 0.1667  plane waves:    8664
 k-point 14 :   0.1429 0.5000 0.1667  plane waves:    8666
 k-point 15 :   0.2857 0.5000 0.1667  plane waves:    8652
 k-point 16 :   0.4286 0.5000 0.1667  plane waves:    8606
 k-point 17 :   0.0000 0.0000 0.3333  plane waves:    8736
 k-point 18 :   0.1429 0.0000 0.3333  plane waves:    8699
 k-point 19 :   0.2857 0.0000 0.3333  plane waves:    8671
 k-point 20 :   0.4286 0.0000 0.3333  plane waves:    8616
 k-point 21 :   0.0000 0.5000 0.3333  plane waves:    8720
 k-point 22 :   0.1429 0.5000 0.3333  plane waves:    8698
 k-point 23 :   0.2857 0.5000 0.3333  plane waves:    8666
 k-point 24 :   0.4286 0.5000 0.3333  plane waves:    8614
 k-point 25 :   0.0000 0.0000 0.5000  plane waves:    8766
 k-point 26 :   0.1429 0.0000 0.5000  plane waves:    8716
 k-point 27 :   0.2857 0.0000 0.5000  plane waves:    8654
 k-point 28 :   0.4286 0.0000 0.5000  plane waves:    8600
 k-point 29 :   0.0000 0.5000 0.5000  plane waves:    8752
 k-point 30 :   0.1429 0.5000 0.5000  plane waves:    8724
 k-point 31 :   0.2857 0.5000 0.5000  plane waves:    8664
 k-point 32 :   0.4286 0.5000 0.5000  plane waves:    8632

 maximum and minimum number of plane-waves per node :      1111     1048

 maximum number of plane-waves:      8766
 maximum index in each direction: 
   IXMAX=    5   IYMAX=   53   IZMAX=    7
   IXMIN=   -5   IYMIN=  -53   IZMIN=   -7


 parallel 3D FFT for wavefunctions:
    minimum data exchange during FFTs selected (reduces bandwidth)
 parallel 3D FFT for charge:
    minimum data exchange during FFTs selected (reduces bandwidth)


 total amount of memory used by VASP MPI-rank0    40016. kBytes
=======================================================================

   base      :      30000. kBytes
   nonl-proj :       2455. kBytes
   fftplans  :        792. kBytes
   grid      :       1070. kBytes
   one-center:          6. kBytes
   wavefun   :       5693. kBytes
 
     INWAV:  cpu time    0.0000: real time    0.0000
 Broyden mixing: mesh for mixing (old mesh)
   NGX = 11   NGY =107   NGZ = 15
  (NGX  = 32   NGY  =320   NGZ  = 48)
  gives a total of  17655 points

 initial charge density was supplied:
 charge density of overlapping atoms calculated
 number of electron      60.0000000 magnetization 
 keeping initial charge density in first step


--------------------------------------------------------------------------------------------------------


 Maximum index for augmentation-charges          313 (set IRDMAX)


--------------------------------------------------------------------------------------------------------


 First call to EWALD:  gamma=   0.227
 Maximum number of real-space cells 6x 1x 5
 Maximum number of reciprocal cells 1x10x 2

    FEWALD:  cpu time    0.0017: real time    0.0017


--------------------------------------- Iteration      1(   1)  ---------------------------------------


    POTLOK:  cpu time    0.0284: real time    0.0296
    SETDIJ:  cpu time    0.0656: real time    0.0656
     EDDAV:  cpu time    1.2804: real time    1.2831
       DOS:  cpu time    0.0011: real time    0.0011
    --------------------------------------------
      LOOP:  cpu time    1.3755: real time    1.3794

 eigenvalue-minimisations  :  2560
 total energy-change (2. order) : 0.3387135E+03  (-0.1925041E+04)
 number of electron      60.0000000 magnetization 
 augmentation part       60.0000000 magnetization 

 Free energy of the ion-electron system (eV)
  ---------------------------------------------------
  alpha Z        PSCENC =        30.28014394
  Ewald energy   TEWEN  =     14973.24208224
  -Hartree energ DENC   =    -16928.93300519
  -exchange      EXHF   =         0.00000000
  -V(xc)+E(xc)   XCENC  =        40.33410248
  PAW double counting   =      1677.12035881    -1579.18296132
  entropy T*S    EENTRO =        -0.00025643
  eigenvalues    EBANDS =        13.36440170
  atomic energy  EATOM  =      2112.48864025
  Solvation  Ediel_sol  =         0.00000000
  ---------------------------------------------------
  free energy    TOTEN  =       338.71350647 eV

  energy without entropy =      338.71376291  energy(sigma->0) =      338.71363469


--------------------------------------------------------------------------------------------------------




--------------------------------------- Iteration      1(   2)  ---------------------------------------


     EDDAV:  cpu time    1.6444: real time    1.6473
       DOS:  cpu time    0.0012: real time    0.0012
    --------------------------------------------
      LOOP:  cpu time    1.6456: real time    1.6484

 eigenvalue-minimisations  :  3648
 total energy-change (2. order) :-0.3655103E+03  (-0.3551759E+03)
 number of electron      60.0000000 magnetization 
 augmentation part       60.0000000 magnetization 

 Free energy of the ion-electron system (eV)
  ---------------------------------------------------
  alpha Z        PSCENC =        30.28014394
  Ewald energy   TEWEN  =     14973.24208224
  -Hartree energ DENC   =    -16928.93300519
  -exchange      EXHF   =         0.00000000
  -V(xc)+E(xc)   XCENC  =        40.33410248
  PAW double counting   =      1677.12035881    -1579.18296132
  entropy T*S    EENTRO =        -0.00021308
  eigenvalues    EBANDS =      -352.14592967
  atomic energy  EATOM  =      2112.48864025
  Solvation  Ediel_sol  =         0.00000000
  ---------------------------------------------------
  free energy    TOTEN  =       -26.79678155 eV

  energy without entropy =      -26.79656847  energy(sigma->0) =      -26.79667501


--------------------------------------------------------------------------------------------------------




--------------------------------------- Iteration      1(   3)  ---------------------------------------


     EDDAV:  cpu time    1.4424: real time    1.4461
       DOS:  cpu time    0.0008: real time    0.0008
    --------------------------------------------
      LOOP:  cpu time    1.4431: real time    1.4469

 eigenvalue-minimisations  :  3080
 total energy-change (2. order) :-0.3665958E+02  (-0.3612333E+02)
 number of electron      60.0000000 magnetization 
 augmentation part       60.0000000 magnetization 

 Free energy of the ion-electron system (eV)
  ---------------------------------------------------
  alpha Z        PSCENC =        30.28014394
  Ewald energy   TEWEN  =     14973.24208224
  -Hartree energ DENC   =    -16928.93300519
  -exchange      EXHF   =         0.00000000
  -V(xc)+E(xc)   XCENC  =        40.33410248
  PAW double counting   =      1677.12035881    -1579.18296132
  entropy T*S    EENTRO =        -0.00000000
  eigenvalues    EBANDS =      -388.80572523
  atomic energy  EATOM  =      2112.48864025
  Solvation  Ediel_sol  =         0.00000000
  ---------------------------------------------------
  free energy    TOTEN  =       -63.45636402 eV

  energy without entropy =      -63.45636402  energy(sigma->0) =      -63.45636402


--------------------------------------------------------------------------------------------------------




--------------------------------------- Iteration      1(   4)  ---------------------------------------


     EDDAV:  cpu time    1.8029: real time    1.8066
       DOS:  cpu time    0.0008: real time    0.0008
    --------------------------------------------
      LOOP:  cpu time    1.8037: real time    1.8074

 eigenvalue-minimisations  :  3840
 total energy-change (2. order) :-0.1346063E+01  (-0.1338995E+01)
 number of electron      60.0000000 magnetization 
 augmentation part       60.0000000 magnetization 

 Free energy of the ion-electron system (eV)
  ---------------------------------------------------
  alpha Z        PSCENC =        30.28014394
  Ewald energy   TEWEN  =     14973.24208224
  -Hartree energ DENC   =    -16928.93300519
  -exchange      EXHF   =         0.00000000
  -V(xc)+E(xc)   XCENC  =        40.33410248
  PAW double counting   =      1677.12035881    -1579.18296132
  entropy T*S    EENTRO =        -0.00000000
  eigenvalues    EBANDS =      -390.15178818
  atomic energy  EATOM  =      2112.48864025
  Solvation  Ediel_sol  =         0.00000000
  ---------------------------------------------------
  free energy    TOTEN  =       -64.80242698 eV

  energy without entropy =      -64.80242698  energy(sigma->0) =      -64.80242698


--------------------------------------------------------------------------------------------------------




--------------------------------------- Iteration      1(   5)  ---------------------------------------


     EDDAV:  cpu time    1.6796: real time    1.6835
       DOS:  cpu time    0.0008: real time    0.0008
    CHARGE:  cpu time    0.0578: real time    0.0578
    MIXING:  cpu time    0.0007: real time    0.0007
    --------------------------------------------
      LOOP:  cpu time    1.7389: real time    1.7427

 eigenvalue-minimisations  :  3792
 total energy-change (2. order) :-0.3373397E-01  (-0.3371127E-01)
 number of electron      59.9999940 magnetization 
 augmentation part       -6.5183274 magnetization 

 Broyden mixing:
  rms(total) = 0.17520E+01    rms(broyden)= 0.17520E+01
  rms(prec ) = 0.17574E+01
  weight for this iteration     100.00

 Free energy of the ion-electron system (eV)
  ---------------------------------------------------
  alpha Z        PSCENC =        30.28014394
  Ewald energy   TEWEN  =     14973.24208224
  -Hartree energ DENC   =    -16928.93300519
  -exchange      EXHF   =         0.00000000
  -V(xc)+E(xc)   XCENC  =        40.33410248
  PAW double counting   =      1677.12035881    -1579.18296132
  entropy T*S    EENTRO =        -0.00000000
  eigenvalues    EBANDS =      -390.18552215
  atomic energy  EATOM  =      2112.48864025
  Solvation  Ediel_sol  =         0.00000000
  ---------------------------------------------------
  free energy    TOTEN  =       -64.83616095 eV

  energy without entropy =      -64.83616095  energy(sigma->0) =      -64.83616095


--------------------------------------------------------------------------------------------------------




--------------------------------------- Iteration      1(   6)  ---------------------------------------


    POTLOK:  cpu time    0.0125: real time    0.0138
    SETDIJ:  cpu time    0.0660: real time    0.0660
     EDDAV:  cpu time    1.5342: real time    1.5373
       DOS:  cpu time    0.0008: real time    0.0008
    CHARGE:  cpu time    0.0589: real time    0.0589
    MIXING:  cpu time    0.0007: real time    0.0007
    --------------------------------------------
      LOOP:  cpu time    1.6730: real time    1.6774

 eigenvalue-minimisations  :  3336
 total energy-change (2. order) : 0.3225986E+00  (-0.1968430E-01)
 number of electron      59.9999940 magnetization 
 augmentation part       -6.4802464 magnetization 

 Broyden mixing:
  rms(total) = 0.10380E+01    rms(broyden)= 0.10380E+01
  rms(prec ) = 0.10412E+01
  weight for this iteration     100.00

 eigenvalues of (default mixing * dielectric matrix)
  average eigenvalue GAMMA=   2.4456
  2.4456

 Free energy of the ion-electron system (eV)
  ---------------------------------------------------
  alpha Z        PSCENC =        30.28014394
  Ewald energy   TEWEN  =     14973.24208224
  -Hartree energ DENC   =    -16941.06376740
  -exchange      EXHF   =         0.00000000
  -V(xc)+E(xc)   XCENC  =        41.37335783
  PAW double counting   =      3128.58346293    -3031.10729629
  entropy T*S    EENTRO =        -0.00000000
  eigenvalues    EBANDS =      -378.31018587
  atomic energy  EATOM  =      2112.48864025
  Solvation  Ediel_sol  =         0.00000000
  ---------------------------------------------------
  free energy    TOTEN  =       -64.51356238 eV

  energy without entropy =      -64.51356238  energy(sigma->0) =      -64.51356238


--------------------------------------------------------------------------------------------------------




--------------------------------------- Iteration      1(   7)  ---------------------------------------


    POTLOK:  cpu time    0.0125: real time    0.0140
    SETDIJ:  cpu time    0.0660: real time    0.0660
     EDDAV:  cpu time    1.5008: real time    1.5039
       DOS:  cpu time    0.0011: real time    0.0011
    CHARGE:  cpu time    0.0570: real time    0.0570
    MIXING:  cpu time    0.0006: real time    0.0006
    --------------------------------------------
      LOOP:  cpu time    1.6379: real time    1.6426

 eigenvalue-minimisations  :  3240
 total energy-change (2. order) : 0.1472763E+00  (-0.3588516E-01)
 number of electron      59.9999940 magnetization 
 augmentation part       -6.4340576 magnetization 

 Broyden mixing:
  rms(total) = 0.44184E-01    rms(broyden)= 0.44183E-01
  rms(prec ) = 0.45485E-01
  weight for this iteration     100.00

 eigenvalues of (default mixing * dielectric matrix)
  average eigenvalue GAMMA=   2.0577
  1.5847  2.5307

 Free energy of the ion-electron system (eV)
  ---------------------------------------------------
  alpha Z        PSCENC =        30.28014394
  Ewald energy   TEWEN  =     14973.24208224
  -Hartree energ DENC   =    -16959.64482801
  -exchange      EXHF   =         0.00000000
  -V(xc)+E(xc)   XCENC  =        43.05320094
  PAW double counting   =      6221.70202571    -6124.78933573
  entropy T*S    EENTRO =        -0.00000009
  eigenvalues    EBANDS =      -360.69821535
  atomic energy  EATOM  =      2112.48864025
  Solvation  Ediel_sol  =         0.00000000
  ---------------------------------------------------
  free energy    TOTEN  =       -64.36628610 eV

  energy without entropy =      -64.36628601  energy(sigma->0) =      -64.36628606


--------------------------------------------------------------------------------------------------------




--------------------------------------- Iteration      1(   8)  ---------------------------------------


    POTLOK:  cpu time    0.0129: real time    0.0143
    SETDIJ:  cpu time    0.0659: real time    0.0659
     EDDAV:  cpu time    1.5079: real time    1.5106
       DOS:  cpu time    0.0011: real time    0.0011
    CHARGE:  cpu time    0.0569: real time    0.0569
    MIXING:  cpu time    0.0006: real time    0.0006
    --------------------------------------------
      LOOP:  cpu time    1.6454: real time    1.6495

 eigenvalue-minimisations  :  3296
 total energy-change (2. order) : 0.2434520E-03  (-0.3192467E-02)
 number of electron      59.9999940 magnetization 
 augmentation part       -6.4443794 magnetization 

 Broyden mixing:
  rms(total) = 0.23257E-01    rms(broyden)= 0.23257E-01
  rms(prec ) = 0.23932E-01
  weight for this iteration     100.00

 eigenvalues of (default mixing * dielectric matrix)
  average eigenvalue GAMMA=   1.5942
  2.5240  1.0011  1.2574

 Free energy of the ion-electron system (eV)
  ---------------------------------------------------
  alpha Z        PSCENC =        30.28014394
  Ewald energy   TEWEN  =     14973.24208224
  -Hartree energ DENC   =    -16960.82518334
  -exchange      EXHF   =         0.00000000
  -V(xc)+E(xc)   XCENC  =        43.08615451
  PAW double counting   =      6332.51884542    -6235.53444615
  entropy T*S    EENTRO =        -0.00000002
  eigenvalues    EBANDS =      -359.62227948
  atomic energy  EATOM  =      2112.48864025
  Solvation  Ediel_sol  =         0.00000000
  ---------------------------------------------------
  free energy    TOTEN  =       -64.36604265 eV

  energy without entropy =      -64.36604263  energy(sigma->0) =      -64.36604264


--------------------------------------------------------------------------------------------------------




--------------------------------------- Iteration      1(   9)  ---------------------------------------


    POTLOK:  cpu time    0.0129: real time    0.0143
    SETDIJ:  cpu time    0.0657: real time    0.0659
     EDDAV:  cpu time    1.6638: real time    1.6658
       DOS:  cpu time    0.0010: real time    0.0010
    CHARGE:  cpu time    0.0556: real time    0.0556
    MIXING:  cpu time    0.0007: real time    0.0007
    --------------------------------------------
      LOOP:  cpu time    1.7997: real time    1.8033

 eigenvalue-minimisations  :  3752
 total energy-change (2. order) : 0.2292150E-04  (-0.1760320E-03)
 number of electron      59.9999940 magnetization 
 augmentation part       -6.4447660 magnetization 

 Broyden mixing:
  rms(total) = 0.20065E-01    rms(broyden)= 0.20065E-01
  rms(prec ) = 0.20630E-01
  weight for this iteration     100.00

 eigenvalues of (default mixing * dielectric matrix)
  average eigenvalue GAMMA=   1.8527
  2.3001  2.3001  1.4054  1.4054

 Free energy of the ion-electron system (eV)
  ---------------------------------------------------
  alpha Z        PSCENC =        30.28014394
  Ewald energy   TEWEN  =     14973.24208224
  -Hartree energ DENC   =    -16961.60015033
  -exchange      EXHF   =         0.00000000
  -V(xc)+E(xc)   XCENC  =        43.09397094
  PAW double counting   =      6329.90096237    -6232.90931510
  entropy T*S    EENTRO =        -0.00000002
  eigenvalues    EBANDS =      -358.86235401
  atomic energy  EATOM  =      2112.48864025
  Solvation  Ediel_sol  =         0.00000000
  ---------------------------------------------------
  free energy    TOTEN  =       -64.36601973 eV

  energy without entropy =      -64.36601971  energy(sigma->0) =      -64.36601972


--------------------------------------------------------------------------------------------------------




--------------------------------------- Iteration      1(  10)  ---------------------------------------


    POTLOK:  cpu time    0.0126: real time    0.0140
    SETDIJ:  cpu time    0.0657: real time    0.0659
     EDDAV:  cpu time    1.4834: real time    1.4865
       DOS:  cpu time    0.0010: real time    0.0010
    CHARGE:  cpu time    0.0573: real time    0.0573
    MIXING:  cpu time    0.0006: real time    0.0006
    --------------------------------------------
      LOOP:  cpu time    1.6205: real time    1.6253

 eigenvalue-minimisations  :  3208
 total energy-change (2. order) : 0.2181463E-03  (-0.3580036E-04)
 number of electron      59.9999940 magnetization 
 augmentation part       -6.4460011 magnetization 

 Broyden mixing:
  rms(total) = 0.14722E-01    rms(broyden)= 0.14722E-01
  rms(prec ) = 0.15196E-01
  weight for this iteration     100.00

 eigenvalues of (default mixing * dielectric matrix)
  average eigenvalue GAMMA=   1.7692
  2.5456  2.5456  1.3533  1.2006  1.2006

 Free energy of the ion-electron system (eV)
  ---------------------------------------------------
  alpha Z        PSCENC =        30.28014394
  Ewald energy   TEWEN  =     14973.24208224
  -Hartree energ DENC   =    -16962.58282433
  -exchange      EXHF   =         0.00000000
  -V(xc)+E(xc)   XCENC  =        43.07860779
  PAW double counting   =      6256.91487033    -6159.89974155
  entropy T*S    EENTRO =        -0.00000001
  eigenvalues    EBANDS =      -357.88758023
  atomic energy  EATOM  =      2112.48864025
  Solvation  Ediel_sol  =         0.00000000
  ---------------------------------------------------
  free energy    TOTEN  =       -64.36580158 eV

  energy without entropy =      -64.36580157  energy(sigma->0) =      -64.36580158


--------------------------------------------------------------------------------------------------------




--------------------------------------- Iteration      1(  11)  ---------------------------------------


    POTLOK:  cpu time    0.0126: real time    0.0143
    SETDIJ:  cpu time    0.0660: real time    0.0660
     EDDAV:  cpu time    1.4912: real time    1.4934
       DOS:  cpu time    0.0009: real time    0.0009
    CHARGE:  cpu time    0.0556: real time    0.0556
    MIXING:  cpu time    0.0007: real time    0.0007
    --------------------------------------------
      LOOP:  cpu time    1.6270: real time    1.6309

 eigenvalue-minimisations  :  3240
 total energy-change (2. order) : 0.2420151E-03  (-0.4065424E-04)
 number of electron      59.9999940 magnetization 
 augmentation part       -6.4455778 magnetization 

 Broyden mixing:
  rms(total) = 0.55185E-02    rms(broyden)= 0.55185E-02
  rms(prec ) = 0.59695E-02
  weight for this iteration     100.00

 eigenvalues of (default mixing * dielectric matrix)
  average eigenvalue GAMMA=   1.6947
  2.5774  2.5774  1.4235  1.1161  1.2370  1.2370

 Free energy of the ion-electron system (eV)
  ---------------------------------------------------
  alpha Z        PSCENC =        30.28014394
  Ewald energy   TEWEN  =     14973.24208224
  -Hartree energ DENC   =    -16964.52292363
  -exchange      EXHF   =         0.00000000
  -V(xc)+E(xc)   XCENC  =        43.10978621
  PAW double counting   =      6272.77205607    -6175.75084478
  entropy T*S    EENTRO =        -0.00000002
  eigenvalues    EBANDS =      -355.98449986
  atomic energy  EATOM  =      2112.48864025
  Solvation  Ediel_sol  =         0.00000000
  ---------------------------------------------------
  free energy    TOTEN  =       -64.36555957 eV

  energy without entropy =      -64.36555955  energy(sigma->0) =      -64.36555956


--------------------------------------------------------------------------------------------------------




--------------------------------------- Iteration      1(  12)  ---------------------------------------


    POTLOK:  cpu time    0.0129: real time    0.0142
    SETDIJ:  cpu time    0.0660: real time    0.0660
     EDDAV:  cpu time    1.5586: real time    1.5721
       DOS:  cpu time    0.0011: real time    0.0011
    CHARGE:  cpu time    0.0570: real time    0.0570
    MIXING:  cpu time    0.0007: real time    0.0007
    --------------------------------------------
      LOOP:  cpu time    1.6964: real time    1.7111

 eigenvalue-minimisations  :  3264
 total energy-change (2. order) :-0.7500763E-04  (-0.6769007E-05)
 number of electron      59.9999940 magnetization 
 augmentation part       -6.4454846 magnetization 

 Broyden mixing:
  rms(total) = 0.15812E-02    rms(broyden)= 0.15812E-02
  rms(prec ) = 0.23398E-02
  weight for this iteration     100.00

 eigenvalues of (default mixing * dielectric matrix)
  average eigenvalue GAMMA=   1.7946
  2.9513  2.6712  1.7160  1.7160  1.2935  1.2935  0.9209

 Free energy of the ion-electron system (eV)
  ---------------------------------------------------
  alpha Z        PSCENC =        30.28014394
  Ewald energy   TEWEN  =     14973.24208224
  -Hartree energ DENC   =    -16965.29888981
  -exchange      EXHF   =         0.00000000
  -V(xc)+E(xc)   XCENC  =        43.11624653
  PAW double counting   =      6281.35444465    -6184.33349756
  entropy T*S    EENTRO =        -0.00000002
  eigenvalues    EBANDS =      -355.21480479
  atomic energy  EATOM  =      2112.48864025
  Solvation  Ediel_sol  =         0.00000000
  ---------------------------------------------------
  free energy    TOTEN  =       -64.36563458 eV

  energy without entropy =      -64.36563456  energy(sigma->0) =      -64.36563457


--------------------------------------------------------------------------------------------------------




--------------------------------------- Iteration      1(  13)  ---------------------------------------


    POTLOK:  cpu time    0.0128: real time    0.0142
    SETDIJ:  cpu time    0.0660: real time    0.0660
     EDDAV:  cpu time    1.4143: real time    1.4169
       DOS:  cpu time    0.0010: real time    0.0010
    CHARGE:  cpu time    0.0570: real time    0.0570
    MIXING:  cpu time    0.0007: real time    0.0007
    --------------------------------------------
      LOOP:  cpu time    1.5518: real time    1.5557

 eigenvalue-minimisations  :  3008
 total energy-change (2. order) :-0.2073228E-03  (-0.7651806E-05)
 number of electron      59.9999940 magnetization 
 augmentation part       -6.4452543 magnetization 

 Broyden mixing:
  rms(total) = 0.43791E-02    rms(broyden)= 0.43791E-02
  rms(prec ) = 0.44781E-02
  weight for this iteration     100.00

 eigenvalues of (default mixing * dielectric matrix)
  average eigenvalue GAMMA=   1.8063
  3.5368  2.4187  2.4187  1.6577  1.1941  1.1941  1.0753  0.9549

 Free energy of the ion-electron system (eV)
  ---------------------------------------------------
  alpha Z        PSCENC =        30.28014394
  Ewald energy   TEWEN  =     14973.24208224
  -Hartree energ DENC   =    -16966.56935846
  -exchange      EXHF   =         0.00000000
  -V(xc)+E(xc)   XCENC  =        43.12634975
  PAW double counting   =      6290.40378349    -6193.38240094
  entropy T*S    EENTRO =        -0.00000002
  eigenvalues    EBANDS =      -353.95508213
  atomic energy  EATOM  =      2112.48864025
  Solvation  Ediel_sol  =         0.00000000
  ---------------------------------------------------
  free energy    TOTEN  =       -64.36584190 eV

  energy without entropy =      -64.36584188  energy(sigma->0) =      -64.36584189


--------------------------------------------------------------------------------------------------------




--------------------------------------- Iteration      1(  14)  ---------------------------------------


    POTLOK:  cpu time    0.0127: real time    0.0145
    SETDIJ:  cpu time    0.0659: real time    0.0659
     EDDAV:  cpu time    1.2734: real time    1.2758
       DOS:  cpu time    0.0010: real time    0.0010
    CHARGE:  cpu time    0.0568: real time    0.0568
    MIXING:  cpu time    0.0008: real time    0.0008
    --------------------------------------------
      LOOP:  cpu time    1.4106: real time    1.4148

 eigenvalue-minimisations  :  2560
 total energy-change (2. order) :-0.1400135E-03  (-0.2074110E-05)
 number of electron      59.9999940 magnetization 
 augmentation part       -6.4451661 magnetization 

 Broyden mixing:
  rms(total) = 0.39091E-02    rms(broyden)= 0.39091E-02
  rms(prec ) = 0.39626E-02
  weight for this iteration     100.00

 eigenvalues of (default mixing * dielectric matrix)
  average eigenvalue GAMMA=   1.6208
  3.4288  2.4223  2.4223  1.6515  1.2138  1.2138  1.1159  0.9203  0.1988

 Free energy of the ion-electron system (eV)
  ---------------------------------------------------
  alpha Z        PSCENC =        30.28014394
  Ewald energy   TEWEN  =     14973.24208224
  -Hartree energ DENC   =    -16967.05151801
  -exchange      EXHF   =         0.00000000
  -V(xc)+E(xc)   XCENC  =        43.12811125
  PAW double counting   =      6288.20620056    -6191.18501580
  entropy T*S    EENTRO =        -0.00000002
  eigenvalues    EBANDS =      -353.47462632
  atomic energy  EATOM  =      2112.48864025
  Solvation  Ediel_sol  =         0.00000000
  ---------------------------------------------------
  free energy    TOTEN  =       -64.36598191 eV

  energy without entropy =      -64.36598189  energy(sigma->0) =      -64.36598190


--------------------------------------------------------------------------------------------------------




--------------------------------------- Iteration      1(  15)  ---------------------------------------


    POTLOK:  cpu time    0.0126: real time    0.0145
    SETDIJ:  cpu time    0.0660: real time    0.0660
     EDDAV:  cpu time    1.1585: real time    1.1714
       DOS:  cpu time    0.0009: real time    0.0009
    CHARGE:  cpu time    0.0590: real time    0.0590
    MIXING:  cpu time    0.0008: real time    0.0008
    --------------------------------------------
      LOOP:  cpu time    1.2978: real time    1.3126

 eigenvalue-minimisations  :  2040
 total energy-change (2. order) :-0.1636744E-04  (-0.1998857E-06)
 number of electron      59.9999940 magnetization 
 augmentation part       -6.4451739 magnetization 

 Broyden mixing:
  rms(total) = 0.32664E-02    rms(broyden)= 0.32664E-02
  rms(prec ) = 0.33272E-02
  weight for this iteration     100.00

 eigenvalues of (default mixing * dielectric matrix)
  average eigenvalue GAMMA=   1.8375
  4.0066  2.5229  1.9204  1.9204  1.7235  1.7235  1.2630  1.2630  1.0160  1.0160

 Free energy of the ion-electron system (eV)
  ---------------------------------------------------
  alpha Z        PSCENC =        30.28014394
  Ewald energy   TEWEN  =     14973.24208224
  -Hartree energ DENC   =    -16967.05809930
  -exchange      EXHF   =         0.00000000
  -V(xc)+E(xc)   XCENC  =        43.12781409
  PAW double counting   =      6287.02584876    -6190.00471997
  entropy T*S    EENTRO =        -0.00000002
  eigenvalues    EBANDS =      -353.46770825
  atomic energy  EATOM  =      2112.48864025
  Solvation  Ediel_sol  =         0.00000000
  ---------------------------------------------------
  free energy    TOTEN  =       -64.36599828 eV

  energy without entropy =      -64.36599826  energy(sigma->0) =      -64.36599827


--------------------------------------------------------------------------------------------------------




--------------------------------------- Iteration      1(  16)  ---------------------------------------


    POTLOK:  cpu time    0.0127: real time    0.0149
    SETDIJ:  cpu time    0.0659: real time    0.0659
     EDDAV:  cpu time    1.2705: real time    1.2739
       DOS:  cpu time    0.0010: real time    0.0010
    CHARGE:  cpu time    0.0576: real time    0.0576
    MIXING:  cpu time    0.0010: real time    0.0010
    --------------------------------------------
      LOOP:  cpu time    1.4087: real time    1.4143

 eigenvalue-minimisations  :  2512
 total energy-change (2. order) :-0.2272904E-03  (-0.1696543E-05)
 number of electron      59.9999940 magnetization 
 augmentation part       -6.4451148 magnetization 

 Broyden mixing:
  rms(total) = 0.19753E-02    rms(broyden)= 0.19753E-02
  rms(prec ) = 0.19956E-02
  weight for this iteration     100.00

 eigenvalues of (default mixing * dielectric matrix)
  average eigenvalue GAMMA=   2.0066
  6.5232  2.7708  2.2152  2.0987  2.0987  1.3394  1.3394  1.0726  0.8616  0.8763
  0.8763

 Free energy of the ion-electron system (eV)
  ---------------------------------------------------
  alpha Z        PSCENC =        30.28014394
  Ewald energy   TEWEN  =     14973.24208224
  -Hartree energ DENC   =    -16967.61655767
  -exchange      EXHF   =         0.00000000
  -V(xc)+E(xc)   XCENC  =        43.12756821
  PAW double counting   =      6277.33394673    -6180.31223768
  entropy T*S    EENTRO =        -0.00000002
  eigenvalues    EBANDS =      -352.90981156
  atomic energy  EATOM  =      2112.48864025
  Solvation  Ediel_sol  =         0.00000000
  ---------------------------------------------------
  free energy    TOTEN  =       -64.36622557 eV

  energy without entropy =      -64.36622555  energy(sigma->0) =      -64.36622556


--------------------------------------------------------------------------------------------------------




--------------------------------------- Iteration      1(  17)  ---------------------------------------


    POTLOK:  cpu time    0.0134: real time    0.0151
    SETDIJ:  cpu time    0.0659: real time    0.0659
     EDDAV:  cpu time    1.2160: real time    1.2179
       DOS:  cpu time    0.0010: real time    0.0010
    CHARGE:  cpu time    0.0560: real time    0.0560
    MIXING:  cpu time    0.0010: real time    0.0010
    --------------------------------------------
      LOOP:  cpu time    1.3532: real time    1.3568

 eigenvalue-minimisations  :  2368
 total energy-change (2. order) :-0.6818276E-04  (-0.7278583E-06)
 number of electron      59.9999940 magnetization 
 augmentation part       -6.4451028 magnetization 

 Broyden mixing:
  rms(total) = 0.23182E-02    rms(broyden)= 0.23182E-02
  rms(prec ) = 0.23237E-02
  weight for this iteration     100.00

 eigenvalues of (default mixing * dielectric matrix)
  average eigenvalue GAMMA=   1.8466
  6.5410  2.7305  2.1814  2.1814  1.9529  1.3262  1.3262  1.1076  0.8459  0.8230
  0.8230  0.3201

 Free energy of the ion-electron system (eV)
  ---------------------------------------------------
  alpha Z        PSCENC =        30.28014394
  Ewald energy   TEWEN  =     14973.24208224
  -Hartree energ DENC   =    -16967.87184437
  -exchange      EXHF   =         0.00000000
  -V(xc)+E(xc)   XCENC  =        43.12775605
  PAW double counting   =      6276.39153333    -6179.36990942
  entropy T*S    EENTRO =        -0.00000003
  eigenvalues    EBANDS =      -352.65469575
  atomic energy  EATOM  =      2112.48864025
  Solvation  Ediel_sol  =         0.00000000
  ---------------------------------------------------
  free energy    TOTEN  =       -64.36629375 eV

  energy without entropy =      -64.36629373  energy(sigma->0) =      -64.36629374


--------------------------------------------------------------------------------------------------------




--------------------------------------- Iteration      1(  18)  ---------------------------------------


    POTLOK:  cpu time    0.0140: real time    0.0142
    SETDIJ:  cpu time    0.0659: real time    0.0659
     EDDAV:  cpu time    1.0934: real time    1.1072
       DOS:  cpu time    0.0010: real time    0.0010
    --------------------------------------------
      LOOP:  cpu time    1.2573: real time    1.2727

 eigenvalue-minimisations  :  2024
 total energy-change (2. order) :-0.3976143E-06  (-0.5480085E-07)
 number of electron      59.9999940 magnetization 
 augmentation part       -6.4451028 magnetization 

 Free energy of the ion-electron system (eV)
  ---------------------------------------------------
  alpha Z        PSCENC =        30.28014394
  Ewald energy   TEWEN  =     14973.24208224
  -Hartree energ DENC   =    -16967.87477040
  -exchange      EXHF   =         0.00000000
  -V(xc)+E(xc)   XCENC  =        43.12779606
  PAW double counting   =      6276.62857257    -6179.60691861
  entropy T*S    EENTRO =        -0.00000003
  eigenvalues    EBANDS =      -352.65184017
  atomic energy  EATOM  =      2112.48864025
  Solvation  Ediel_sol  =         0.00000000
  ---------------------------------------------------
  free energy    TOTEN  =       -64.36629415 eV

  energy without entropy =      -64.36629413  energy(sigma->0) =      -64.36629414


--------------------------------------------------------------------------------------------------------




 the core state eigenenergies are
   1-  1s  -2078.3950  2s   -168.4255  2p   -118.9112
   2-  1s  -2078.3950  2s   -168.4255  2p   -118.9112
   3-  1s  -2078.4542  2s   -168.4789  2p   -118.9651
   4-  1s  -2078.4542  2s   -168.4789  2p   -118.9651
   5-  1s  -2078.4839  2s   -168.5097  2p   -118.9958
   6-  1s  -2078.4839  2s   -168.5097  2p   -118.9958
   7-  1s  -2078.4839  2s   -168.5097  2p   -118.9958
   8-  1s  -2078.4839  2s   -168.5097  2p   -118.9958
   9-  1s  -2078.4542  2s   -168.4789  2p   -118.9651
  10-  1s  -2078.4542  2s   -168.4789  2p   -118.9651
  11-  1s  -2078.3950  2s   -168.4255  2p   -118.9112
  12-  1s  -2078.3950  2s   -168.4255  2p   -118.9112
 
 E-fermi :   0.9343     XC(G=0):  -5.1377     alpha+bet : -5.5572


 k-point     1 :       0.0000    0.0000    0.0000
  band No.  band energies     occupation 
      1     -14.8592      2.00000
      2     -14.7386      2.00000
      3     -14.6700      2.00000
      4     -12.3783      2.00000
      5     -12.1319      2.00000
      6     -11.9524      2.00000
      7      -8.6116      2.00000
      8      -8.5273      2.00000
      9      -8.4971      2.00000
     10      -5.9294      2.00000
     11      -5.5498      2.00000
     12      -5.1316      2.00000
     13      -4.5108      2.00000
     14      -4.5092      2.00000
     15      -4.1928      2.00000
     16      -4.1472      2.00000
     17      -3.9998      2.00000
     18      -3.9272      2.00000
     19      -3.3985      2.00000
     20      -3.2972      2.00000
     21      -3.2475      2.00000
     22      -1.8843      2.00000
     23      -1.7413      2.00000
     24      -1.6292      2.00000
     25      -1.5938      2.00000
     26      -1.5090      2.00000
     27      -1.1126      2.00000
     28      -0.2553      2.00000
     29       0.3489      2.00000
     30       0.9039      1.99998
     31       0.9648      0.00002
     32       1.4926      0.00000
     33       1.5185      0.00000
     34       1.6920      0.00000
     35       1.7012      0.00000
     36       1.8568      0.00000
     37       2.7259      0.00000
     38       2.8969      0.00000
     39       2.9673      0.00000
     40       3.7024      0.00000

 k-point     2 :       0.1429    0.0000    0.0000
  band No.  band energies     occupation 
      1     -14.6213      2.00000
      2     -14.5015      2.00000
      3     -14.4338      2.00000
      4     -12.1308      2.00000
      5     -11.8855      2.00000
      6     -11.7068      2.00000
      7      -8.8127      2.00000
      8      -8.7461      2.00000
      9      -8.7346      2.00000
     10      -5.7276      2.00000
     11      -5.3535      2.00000
     12      -4.9518      2.00000
     13      -4.8050      2.00000
     14      -4.6836      2.00000
     15      -4.6114      2.00000
     16      -4.2982      2.00000
     17      -4.2531      2.00000
     18      -4.1645      2.00000
     19      -4.1617      2.00000
     20      -3.9486      2.00000
     21      -3.8035      2.00000
     22      -2.5110      2.00000
     23      -2.4135      2.00000
     24      -2.3000      2.00000
     25      -1.7763      2.00000
     26      -1.5090      2.00000
     27      -1.0013      2.00000
     28      -0.2030      2.00000
     29       0.2484      2.00000
     30       0.5791      2.00000
     31       1.1759      0.00000
     32       1.6369      0.00000
     33       1.8527      0.00000
     34       2.5612      0.00000
     35       2.7524      0.00000
     36       2.8140      0.00000
     37       3.2505      0.00000
     38       3.3904      0.00000
     39       3.5057      0.00000
     40       4.1451      0.00000

 k-point     3 :       0.2857    0.0000    0.0000
  band No.  band energies     occupation 
      1     -13.9165      2.00000
      2     -13.7996      2.00000
      3     -13.7350      2.00000
      4     -11.3928      2.00000
      5     -11.1508      2.00000
      6     -10.9747      2.00000
      7      -9.7578      2.00000
      8      -9.6902      2.00000
      9      -9.6779      2.00000
     10      -6.5397      2.00000
     11      -6.3658      2.00000
     12      -6.2485      2.00000
     13      -5.1686      2.00000
     14      -4.9314      2.00000
     15      -4.8801      2.00000
     16      -4.8663      2.00000
     17      -4.8209      2.00000
     18      -4.4865      2.00000
     19      -3.6973      2.00000
     20      -3.3966      2.00000
     21      -3.2636      2.00000
     22      -2.8085      2.00000
     23      -2.5134      2.00000
     24      -2.2541      2.00000
     25      -1.7034      2.00000
     26      -1.4231      2.00000
     27      -1.0186      2.00000
     28      -0.5248      2.00000
     29      -0.4276      2.00000
     30      -0.4198      2.00000
     31       1.1482      0.00000
     32       1.2456      0.00000
     33       1.5368      0.00000
     34       1.8475      0.00000
     35       2.4556      0.00000
     36       2.6652      0.00000
     37       2.8152      0.00000
     38       3.1365      0.00000
     39       3.1791      0.00000
     40       3.2153      0.00000

 k-point     4 :       0.4286    0.0000    0.0000
  band No.  band energies     occupation 
      1     -12.7789      2.00000
      2     -12.6682      2.00000
      3     -12.6102      2.00000
      4     -11.3009      2.00000
      5     -11.2036      2.00000
      6     -11.1600      2.00000
      7     -10.1796      2.00000
      8      -9.9445      2.00000
      9      -9.7739      2.00000
     10      -8.5276      2.00000
     11      -8.3075      2.00000
     12      -8.1492      2.00000
     13      -4.6461      2.00000
     14      -4.5679      2.00000
     15      -4.5677      2.00000
     16      -4.5378      2.00000
     17      -4.3034      2.00000
     18      -4.1550      2.00000
     19      -2.8588      2.00000
     20      -2.6918      2.00000
     21      -2.6112      2.00000
     22      -2.4456      2.00000
     23      -2.2520      2.00000
     24      -2.1650      2.00000
     25      -2.0483      2.00000
     26      -1.7858      2.00000
     27      -1.6858      2.00000
     28      -1.5317      2.00000
     29      -1.4322      2.00000
     30      -1.2060      2.00000
     31       1.4685      0.00000
     32       1.4860      0.00000
     33       1.6433      0.00000
     34       1.7447      0.00000
     35       1.8328      0.00000
     36       1.8430      0.00000
     37       1.8608      0.00000
     38       2.0497      0.00000
     39       2.1307      0.00000
     40       2.7734      0.00000

 k-point     5 :       0.0000    0.5000    0.0000
  band No.  band energies     occupation 
      1     -14.8593      2.00000
      2     -14.7386      2.00000
      3     -14.6700      2.00000
      4     -12.3783      2.00000
      5     -12.1319      2.00000
      6     -11.9524      2.00000
      7      -8.6116      2.00000
      8      -8.5273      2.00000
      9      -8.4971      2.00000
     10      -5.9294      2.00000
     11      -5.5498      2.00000
     12      -5.1316      2.00000
     13      -4.5108      2.00000
     14      -4.5092      2.00000
     15      -4.1928      2.00000
     16      -4.1472      2.00000
     17      -3.9998      2.00000
     18      -3.9272      2.00000
     19      -3.3985      2.00000
     20      -3.2972      2.00000
     21      -3.2475      2.00000
     22      -1.8843      2.00000
     23      -1.7413      2.00000
     24      -1.6292      2.00000
     25      -1.5937      2.00000
     26      -1.5090      2.00000
     27      -1.1126      2.00000
     28      -0.2553      2.00000
     29       0.3489      2.00000
     30       0.9039      1.99998
     31       0.9648      0.00002
     32       1.4926      0.00000
     33       1.5185      0.00000
     34       1.6920      0.00000
     35       1.7012      0.00000
     36       1.8569      0.00000
     37       2.7259      0.00000
     38       2.8969      0.00000
     39       2.9673      0.00000
     40       3.6716      0.00000

 k-point     6 :       0.1429    0.5000    0.0000
  band No.  band energies     occupation 
      1     -14.6213      2.00000
      2     -14.5015      2.00000
      3     -14.4338      2.00000
      4     -12.1308      2.00000
      5     -11.8855      2.00000
      6     -11.7068      2.00000
      7      -8.8127      2.00000
      8      -8.7461      2.00000
      9      -8.7346      2.00000
     10      -5.7276      2.00000
     11      -5.3535      2.00000
     12      -4.9518      2.00000
     13      -4.8050      2.00000
     14      -4.6836      2.00000
     15      -4.6114      2.00000
     16      -4.2982      2.00000
     17      -4.2531      2.00000
     18      -4.1645      2.00000
     19      -4.1617      2.00000
     20      -3.9486      2.00000
     21      -3.8035      2.00000
     22      -2.5110      2.00000
     23      -2.4135      2.00000
     24      -2.3000      2.00000
     25      -1.7763      2.00000
     26      -1.5090      2.00000
     27      -1.0013      2.00000
     28      -0.2030      2.00000
     29       0.2484      2.00000
     30       0.5791      2.00000
     31       1.1759      0.00000
     32       1.6369      0.00000
     33       1.8527      0.00000
     34       2.5611      0.00000
     35       2.7523      0.00000
     36       2.8140      0.00000
     37       3.2505      0.00000
     38       3.3904      0.00000
     39       3.5057      0.00000
     40       4.1481      0.00000

 k-point     7 :       0.2857    0.5000    0.0000
  band No.  band energies     occupation 
      1     -13.9165      2.00000
      2     -13.7996      2.00000
      3     -13.7350      2.00000
      4     -11.3928      2.00000
      5     -11.1508      2.00000
      6     -10.9747      2.00000
      7      -9.7578      2.00000
      8      -9.6902      2.00000
      9      -9.6779      2.00000
     10      -6.5397      2.00000
     11      -6.3658      2.00000
     12      -6.2485      2.00000
     13      -5.1686      2.00000
     14      -4.9314      2.00000
     15      -4.8801      2.00000
     16      -4.8663      2.00000
     17      -4.8209      2.00000
     18      -4.4865      2.00000
     19      -3.6973      2.00000
     20      -3.3966      2.00000
     21      -3.2636      2.00000
     22      -2.8085      2.00000
     23      -2.5134      2.00000
     24      -2.2541      2.00000
     25      -1.7034      2.00000
     26      -1.4231      2.00000
     27      -1.0186      2.00000
     28      -0.5248      2.00000
     29      -0.4276      2.00000
     30      -0.4198      2.00000
     31       1.1482      0.00000
     32       1.2456      0.00000
     33       1.5368      0.00000
     34       1.8475      0.00000
     35       2.4556      0.00000
     36       2.6652      0.00000
     37       2.8152      0.00000
     38       3.1365      0.00000
     39       3.1791      0.00000
     40       3.2153      0.00000

 k-point     8 :       0.4286    0.5000    0.0000
  band No.  band energies     occupation 
      1     -12.7789      2.00000
      2     -12.6682      2.00000
      3     -12.6102      2.00000
      4     -11.3009      2.00000
      5     -11.2036      2.00000
      6     -11.1600      2.00000
      7     -10.1796      2.00000
      8      -9.9445      2.00000
      9      -9.7739      2.00000
     10      -8.5276      2.00000
     11      -8.3075      2.00000
     12      -8.1492      2.00000
     13      -4.6461      2.00000
     14      -4.5679      2.00000
     15      -4.5677      2.00000
     16      -4.5378      2.00000
     17      -4.3034      2.00000
     18      -4.1550      2.00000
     19      -2.8588      2.00000
     20      -2.6918      2.00000
     21      -2.6112      2.00000
     22      -2.4456      2.00000
     23      -2.2520      2.00000
     24      -2.1650      2.00000
     25      -2.0483      2.00000
     26      -1.7858      2.00000
     27      -1.6858      2.00000
     28      -1.5317      2.00000
     29      -1.4322      2.00000
     30      -1.2060      2.00000
     31       1.4685      0.00000
     32       1.4860      0.00000
     33       1.6433      0.00000
     34       1.7447      0.00000
     35       1.8328      0.00000
     36       1.8430      0.00000
     37       1.8609      0.00000
     38       2.0497      0.00000
     39       2.1307      0.00000
     40       2.7722      0.00000

 k-point     9 :       0.0000    0.0000    0.1667
  band No.  band energies     occupation 
      1     -14.7014      2.00000
      2     -14.5837      2.00000
      3     -14.5184      2.00000
      4     -12.4620      2.00000
      5     -12.2699      2.00000
      6     -12.1512      2.00000
      7      -8.8388      2.00000
      8      -8.7565      2.00000
      9      -8.7149      2.00000
     10      -6.2324      2.00000
     11      -6.0877      2.00000
     12      -6.0620      2.00000
     13      -4.5155      2.00000
     14      -4.3326      2.00000
     15      -3.8375      2.00000
     16      -3.7057      2.00000
     17      -3.3157      2.00000
     18      -3.3143      2.00000
     19      -3.2728      2.00000
     20      -3.1751      2.00000
     21      -3.1292      2.00000
     22      -1.7918      2.00000
     23      -1.6662      2.00000
     24      -1.6037      2.00000
     25      -1.1258      2.00000
     26      -0.9392      2.00000
     27      -0.8252      2.00000
     28      -0.6121      2.00000
     29      -0.3986      2.00000
     30       0.0680      2.00000
     31       1.5055      0.00000
     32       1.8516      0.00000
     33       1.8865      0.00000
     34       1.9414      0.00000
     35       2.1906      0.00000
     36       2.4865      0.00000
     37       2.5739      0.00000
     38       2.6058      0.00000
     39       2.6374      0.00000
     40       3.4974      0.00000

 k-point    10 :       0.1429    0.0000    0.1667
  band No.  band energies     occupation 
      1     -14.4650      2.00000
      2     -14.3482      2.00000
      3     -14.2837      2.00000
      4     -12.2217      2.00000
      5     -12.0324      2.00000
      6     -11.9166      2.00000
      7      -8.9387      2.00000
      8      -8.8533      2.00000
      9      -8.8107      2.00000
     10      -6.1630      2.00000
     11      -6.0085      2.00000
     12      -5.9950      2.00000
     13      -4.7746      2.00000
     14      -4.7064      2.00000
     15      -4.5173      2.00000
     16      -4.4871      2.00000
     17      -4.2403      2.00000
     18      -3.8435      2.00000
     19      -3.1451      2.00000
     20      -3.0053      2.00000
     21      -2.8971      2.00000
     22      -2.8141      2.00000
     23      -2.7019      2.00000
     24      -2.6434      2.00000
     25      -1.0035      2.00000
     26      -0.9899      2.00000
     27      -0.8782      2.00000
     28      -0.6455      2.00000
     29      -0.3860      2.00000
     30       0.0122      2.00000
     31       1.6570      0.00000
     32       2.0200      0.00000
     33       2.3450      0.00000
     34       2.6273      0.00000
     35       2.7590      0.00000
     36       2.9220      0.00000
     37       3.3963      0.00000
     38       3.4786      0.00000
     39       3.4801      0.00000
     40       4.1515      0.00000

 k-point    11 :       0.2857    0.0000    0.1667
  band No.  band energies     occupation 
      1     -13.7662      2.00000
      2     -13.6525      2.00000
      3     -13.5912      2.00000
      4     -11.5273      2.00000
      5     -11.3536      2.00000
      6     -11.2548      2.00000
      7      -9.6251      2.00000
      8      -9.5133      2.00000
      9      -9.4471      2.00000
     10      -6.7599      2.00000
     11      -6.6608      2.00000
     12      -6.6235      2.00000
     13      -5.5570      2.00000
     14      -5.4362      2.00000
     15      -5.3359      2.00000
     16      -4.9540      2.00000
     17      -4.6658      2.00000
     18      -4.5591      2.00000
     19      -3.1154      2.00000
     20      -3.1061      2.00000
     21      -2.9261      2.00000
     22      -2.7165      2.00000
     23      -2.5458      2.00000
     24      -2.5440      2.00000
     25      -1.7816      2.00000
     26      -1.5568      2.00000
     27      -1.1733      2.00000
     28      -0.8505      2.00000
     29      -0.5552      2.00000
     30      -0.4954      2.00000
     31       1.7574      0.00000
     32       1.7877      0.00000
     33       2.0430      0.00000
     34       2.2721      0.00000
     35       2.3611      0.00000
     36       2.5782      0.00000
     37       2.7466      0.00000
     38       2.8465      0.00000
     39       3.0918      0.00000
     40       3.7040      0.00000

 k-point    12 :       0.4286    0.0000    0.1667
  band No.  band energies     occupation 
      1     -12.6486      2.00000
      2     -12.5419      2.00000
      3     -12.4881      2.00000
      4     -11.2981      2.00000
      5     -11.2088      2.00000
      6     -11.1746      2.00000
      7     -10.0955      2.00000
      8      -9.8867      2.00000
      9      -9.7434      2.00000
     10      -8.5768      2.00000
     11      -8.3963      2.00000
     12      -8.2810      2.00000
     13      -5.1697      2.00000
     14      -5.0477      2.00000
     15      -4.9519      2.00000
     16      -4.5848      2.00000
     17      -4.3871      2.00000
     18      -4.2912      2.00000
     19      -3.3306      2.00000
     20      -3.1419      2.00000
     21      -3.0459      2.00000
     22      -2.8242      2.00000
     23      -2.7535      2.00000
     24      -2.7186      2.00000
     25      -1.9857      2.00000
     26      -1.6918      2.00000
     27      -1.2687      2.00000
     28      -1.2255      2.00000
     29      -0.9800      2.00000
     30      -0.8731      2.00000
     31       1.4454      0.00000
     32       1.5755      0.00000
     33       1.6284      0.00000
     34       1.9876      0.00000
     35       2.1719      0.00000
     36       2.1750      0.00000
     37       2.7724      0.00000
     38       2.8515      0.00000
     39       3.0194      0.00000
     40       3.0825      0.00000

 k-point    13 :       0.0000    0.5000    0.1667
  band No.  band energies     occupation 
      1     -14.7014      2.00000
      2     -14.5837      2.00000
      3     -14.5184      2.00000
      4     -12.4620      2.00000
      5     -12.2699      2.00000
      6     -12.1512      2.00000
      7      -8.8388      2.00000
      8      -8.7565      2.00000
      9      -8.7149      2.00000
     10      -6.2324      2.00000
     11      -6.0877      2.00000
     12      -6.0620      2.00000
     13      -4.5155      2.00000
     14      -4.3326      2.00000
     15      -3.8375      2.00000
     16      -3.7058      2.00000
     17      -3.3157      2.00000
     18      -3.3143      2.00000
     19      -3.2728      2.00000
     20      -3.1751      2.00000
     21      -3.1292      2.00000
     22      -1.7918      2.00000
     23      -1.6662      2.00000
     24      -1.6038      2.00000
     25      -1.1258      2.00000
     26      -0.9391      2.00000
     27      -0.8252      2.00000
     28      -0.6121      2.00000
     29      -0.3986      2.00000
     30       0.0680      2.00000
     31       1.5055      0.00000
     32       1.8516      0.00000
     33       1.8865      0.00000
     34       1.9414      0.00000
     35       2.1906      0.00000
     36       2.4865      0.00000
     37       2.5739      0.00000
     38       2.6058      0.00000
     39       2.6374      0.00000
     40       3.4783      0.00000

 k-point    14 :       0.1429    0.5000    0.1667
  band No.  band energies     occupation 
      1     -14.4650      2.00000
      2     -14.3482      2.00000
      3     -14.2837      2.00000
      4     -12.2217      2.00000
      5     -12.0324      2.00000
      6     -11.9166      2.00000
      7      -8.9387      2.00000
      8      -8.8533      2.00000
      9      -8.8107      2.00000
     10      -6.1630      2.00000
     11      -6.0085      2.00000
     12      -5.9950      2.00000
     13      -4.7746      2.00000
     14      -4.7064      2.00000
     15      -4.5173      2.00000
     16      -4.4871      2.00000
     17      -4.2403      2.00000
     18      -3.8435      2.00000
     19      -3.1451      2.00000
     20      -3.0053      2.00000
     21      -2.8971      2.00000
     22      -2.8141      2.00000
     23      -2.7019      2.00000
     24      -2.6434      2.00000
     25      -1.0036      2.00000
     26      -0.9899      2.00000
     27      -0.8782      2.00000
     28      -0.6455      2.00000
     29      -0.3860      2.00000
     30       0.0122      2.00000
     31       1.6570      0.00000
     32       2.0200      0.00000
     33       2.3450      0.00000
     34       2.6273      0.00000
     35       2.7590      0.00000
     36       2.9220      0.00000
[...]
     34       2.8926      0.00000
     35       2.9896      0.00000
     36       2.9896      0.00000
     37       3.3102      0.00000
     38       3.3102      0.00000
     39       3.8702      0.00000
     40       3.8702      0.00000

 k-point    27 :       0.2857    0.0000    0.5000
  band No.  band energies     occupation 
      1     -12.6776      2.00000
      2     -12.6776      2.00000
      3     -12.6087      2.00000
      4     -12.6087      2.00000
      5     -12.5658      2.00000
      6     -12.5658      2.00000
      7      -8.4608      2.00000
      8      -8.4608      2.00000
      9      -8.2613      2.00000
     10      -8.2613      2.00000
     11      -8.1267      2.00000
     12      -8.1267      2.00000
     13      -5.6467      2.00000
     14      -5.6467      2.00000
     15      -5.4414      2.00000
     16      -5.4414      2.00000
     17      -5.2598      2.00000
     18      -5.2598      2.00000
     19      -3.2281      2.00000
     20      -3.2281      2.00000
     21      -2.7491      2.00000
     22      -2.7491      2.00000
     23      -2.3973      2.00000
     24      -2.3973      2.00000
     25      -1.7696      2.00000
     26      -1.7696      2.00000
     27      -1.3075      2.00000
     28      -1.3075      2.00000
     29      -0.8022      2.00000
     30      -0.8022      2.00000
     31       2.7366      0.00000
     32       2.7366      0.00000
     33       3.3899      0.00000
     34       3.3899      0.00000
     35       3.6610      0.00000
     36       3.6610      0.00000
     37       3.9547      0.00000
     38       3.9547      0.00000
     39       3.9793      0.00000
     40       3.9793      0.00000

 k-point    28 :       0.4286    0.0000    0.5000
  band No.  band energies     occupation 
      1     -11.7953      2.00000
      2     -11.7953      2.00000
      3     -11.7349      2.00000
      4     -11.7349      2.00000
      5     -11.7082      2.00000
      6     -11.7082      2.00000
      7      -9.2985      2.00000
      8      -9.2985      2.00000
      9      -9.2130      2.00000
     10      -9.2130      2.00000
     11      -9.1826      2.00000
     12      -9.1826      2.00000
     13      -5.4983      2.00000
     14      -5.4983      2.00000
     15      -5.1988      2.00000
     16      -5.1988      2.00000
     17      -4.9349      2.00000
     18      -4.9349      2.00000
     19      -4.2885      2.00000
     20      -4.2885      2.00000
     21      -3.9780      2.00000
     22      -3.9780      2.00000
     23      -3.7142      2.00000
     24      -3.7142      2.00000
     25      -1.5631      2.00000
     26      -1.5631      2.00000
     27      -1.1380      2.00000
     28      -1.1380      2.00000
     29      -0.9520      2.00000
     30      -0.9520      2.00000
     31       2.6163      0.00000
     32       2.6163      0.00000
     33       2.7802      0.00000
     34       2.7802      0.00000
     35       3.2664      0.00000
     36       3.2664      0.00000
     37       4.5292      0.00000
     38       4.5302      0.00000
     39       4.5794      0.00000
     40       4.6146      0.00000

 k-point    29 :       0.0000    0.5000    0.5000
  band No.  band energies     occupation 
      1     -13.5516      2.00000
      2     -13.5516      2.00000
      3     -13.4815      2.00000
      4     -13.4815      2.00000
      5     -13.4348      2.00000
      6     -13.4348      2.00000
      7      -8.5760      2.00000
      8      -8.5760      2.00000
      9      -8.2591      2.00000
     10      -8.2591      2.00000
     11      -7.9857      2.00000
     12      -7.9857      2.00000
     13      -3.5964      2.00000
     14      -3.5964      2.00000
     15      -2.8331      2.00000
     16      -2.8331      2.00000
     17      -2.4275      2.00000
     18      -2.4275      2.00000
     19      -2.3833      2.00000
     20      -2.3833      2.00000
     21      -2.3374      2.00000
     22      -2.3374      2.00000
     23      -2.0282      2.00000
     24      -2.0282      2.00000
     25      -0.7322      2.00000
     26      -0.7322      2.00000
     27      -0.5243      2.00000
     28      -0.5243      2.00000
     29      -0.4519      2.00000
     30      -0.4519      2.00000
     31       2.1852      0.00000
     32       2.1852      0.00000
     33       2.2293      0.00000
     34       2.2293      0.00000
     35       2.2823      0.00000
     36       2.2823      0.00000
     37       3.4128      0.00000
     38       3.4139      0.00000
     39       3.5605      0.00000
     40       3.5846      0.00000

 k-point    30 :       0.1429    0.5000    0.5000
  band No.  band energies     occupation 
      1     -13.3260      2.00000
      2     -13.3260      2.00000
      3     -13.2561      2.00000
      4     -13.2561      2.00000
      5     -13.2101      2.00000
      6     -13.2101      2.00000
      7      -8.4616      2.00000
      8      -8.4616      2.00000
      9      -8.1626      2.00000
     10      -8.1626      2.00000
     11      -7.9117      2.00000
     12      -7.9117      2.00000
     13      -4.0351      2.00000
     14      -4.0351      2.00000
     15      -3.9479      2.00000
     16      -3.9479      2.00000
     17      -3.8491      2.00000
     18      -3.8491      2.00000
     19      -3.3973      2.00000
     20      -3.3973      2.00000
     21      -2.6734      2.00000
     22      -2.6734      2.00000
     23      -1.9672      2.00000
     24      -1.9672      2.00000
     25      -0.6412      2.00000
     26      -0.6412      2.00000
     27      -0.5259      2.00000
     28      -0.5259      2.00000
     29      -0.4425      2.00000
     30      -0.4425      2.00000
     31       2.8477      0.00000
     32       2.8477      0.00000
     33       2.8926      0.00000
     34       2.8926      0.00000
     35       2.9896      0.00000
     36       2.9896      0.00000
     37       3.3102      0.00000
     38       3.3102      0.00000
     39       3.8702      0.00000
     40       3.8702      0.00000

 k-point    31 :       0.2857    0.5000    0.5000
  band No.  band energies     occupation 
      1     -12.6776      2.00000
      2     -12.6776      2.00000
      3     -12.6087      2.00000
      4     -12.6087      2.00000
      5     -12.5658      2.00000
      6     -12.5658      2.00000
      7      -8.4608      2.00000
      8      -8.4608      2.00000
      9      -8.2613      2.00000
     10      -8.2613      2.00000
     11      -8.1267      2.00000
     12      -8.1267      2.00000
     13      -5.6467      2.00000
     14      -5.6467      2.00000
     15      -5.4415      2.00000
     16      -5.4415      2.00000
     17      -5.2598      2.00000
     18      -5.2598      2.00000
     19      -3.2281      2.00000
     20      -3.2281      2.00000
     21      -2.7491      2.00000
     22      -2.7491      2.00000
     23      -2.3973      2.00000
     24      -2.3973      2.00000
     25      -1.7696      2.00000
     26      -1.7696      2.00000
     27      -1.3075      2.00000
     28      -1.3075      2.00000
     29      -0.8022      2.00000
     30      -0.8022      2.00000
     31       2.7366      0.00000
     32       2.7366      0.00000
     33       3.3899      0.00000
     34       3.3899      0.00000
     35       3.6610      0.00000
     36       3.6610      0.00000
     37       3.9547      0.00000
     38       3.9547      0.00000
     39       3.9793      0.00000
     40       3.9793      0.00000

 k-point    32 :       0.4286    0.5000    0.5000
  band No.  band energies     occupation 
      1     -11.7953      2.00000
      2     -11.7953      2.00000
      3     -11.7349      2.00000
      4     -11.7349      2.00000
      5     -11.7082      2.00000
      6     -11.7082      2.00000
      7      -9.2985      2.00000
      8      -9.2985      2.00000
      9      -9.2130      2.00000
     10      -9.2130      2.00000
     11      -9.1826      2.00000
     12      -9.1826      2.00000
     13      -5.4983      2.00000
     14      -5.4983      2.00000
     15      -5.1988      2.00000
     16      -5.1988      2.00000
     17      -4.9350      2.00000
     18      -4.9350      2.00000
     19      -4.2885      2.00000
     20      -4.2885      2.00000
     21      -3.9781      2.00000
     22      -3.9781      2.00000
     23      -3.7142      2.00000
     24      -3.7142      2.00000
     25      -1.5631      2.00000
     26      -1.5631      2.00000
     27      -1.1380      2.00000
     28      -1.1380      2.00000
     29      -0.9519      2.00000
     30      -0.9519      2.00000
     31       2.6163      0.00000
     32       2.6163      0.00000
     33       2.7801      0.00000
     34       2.7801      0.00000
     35       3.2664      0.00000
     36       3.2664      0.00000
     37       4.5291      0.00000
     38       4.5431      0.00000
     39       4.5818      0.00000
     40       4.5950      0.00000


--------------------------------------------------------------------------------------------------------


 soft charge-density along one line, spin component           1
         0         1         2         3         4         5         6         7         8         9
 total charge-density along one line
 
 pseudopotential strength for first ion, spin component:           1
 29.686  37.032   0.035  -0.033   0.000   0.055  -0.052  -0.000
 37.032  46.200   0.044  -0.041  -0.000   0.068  -0.064  -0.000
  0.035   0.044   6.554   0.006  -0.000  10.135   0.009  -0.000
 -0.033  -0.041   0.006   6.558   0.000   0.009  10.141   0.000
  0.000  -0.000  -0.000   0.000   6.562  -0.000   0.000  10.148
  0.055   0.068  10.135   0.009  -0.000  15.692   0.014  -0.000
 -0.052  -0.064   0.009  10.141   0.000   0.014  15.701   0.000
 -0.000  -0.000  -0.000   0.000  10.148  -0.000   0.000  15.711
 total augmentation occupancy for first ion, spin component:           1
  8.296  -4.728   1.851  -1.946   0.000  -0.592   0.649   0.000
 -4.728   3.433  -1.590   1.651   0.000   0.438  -0.476   0.000
  1.851  -1.590   3.128   0.196   0.000  -0.824  -0.162   0.000
 -1.946   1.651   0.196   3.270   0.000  -0.161  -0.922   0.000
  0.000  -0.000   0.000   0.000   3.397   0.000   0.000  -1.025
 -0.592   0.438  -0.824  -0.161   0.000   0.259   0.069   0.000
  0.649  -0.476  -0.162  -0.922   0.000   0.069   0.298   0.000
  0.000  -0.000   0.000   0.000  -1.025   0.000   0.000   0.339


------------------------ aborting loop because EDIFF is reached ----------------------------------------


 


 total charge     
 
# of ion       s       p       d       tot
------------------------------------------
    1        1.082   1.376   0.000   2.458
    2        1.082   1.376   0.000   2.458
    3        1.083   1.372   0.000   2.455
    4        1.083   1.372   0.000   2.455
    5        1.084   1.371   0.000   2.455
    6        1.084   1.371   0.000   2.455
    7        1.084   1.371   0.000   2.455
    8        1.084   1.371   0.000   2.455
    9        1.083   1.372   0.000   2.455
   10        1.083   1.372   0.000   2.455
   11        1.082   1.376   0.000   2.458
   12        1.082   1.376   0.000   2.458
--------------------------------------------------
tot         12.998  16.474   0.000  29.471
 
    CHARGE:  cpu time    0.0570: real time    0.0570
    FORLOC:  cpu time    0.0012: real time    0.0012
    FORNL :  cpu time    0.2794: real time    0.2796
    STRESS:  cpu time    0.4502: real time    0.4502
    FORCOR:  cpu time    0.0132: real time    0.0132
    FORHAR:  cpu time    0.0040: real time    0.0040
    MIXING:  cpu time    0.0011: real time    0.0011
    OFIELD:  cpu time    0.0000: real time    0.0000

  DFT-D2 method for vdW energy calculation
  -------------------------------------------------------------------

  Parameters of vdW forcefield:
         C6(Jnm^6/mol)     R0(A)
   -----------------------------
   P        7.840          1.705

  IVDW =  10
  VDW_RADIUS =    50.000 A
  VDW_S6 =     0.750
  VDW_SR =     1.000
  VDW_D =    20.000
  LVDW_EWALD = F

  Number of pair interactions contributing to vdW energy:   88382
  Edisp (eV):   -2.17394
    FORVDW:  cpu time    0.0523: real time    0.0530

  FORCE on cell =-STRESS in cart. coord.  units (eV):
  Direction    XX          YY          ZZ          XY          YZ          ZX
  --------------------------------------------------------------------------------------
  Alpha Z    30.28014    30.28014    30.28014
  Ewald   16591.01473-18044.25022 16426.47569    -0.00000     0.00000     0.00000
  Hartree 16897.98479-16770.76436 16840.78057    -0.00000    -0.00000    -0.00000
  E(xc)    -201.41121  -202.67118  -201.61965    -0.00000    -0.00000     0.00000
  Local  -34440.62365 33820.42872-34239.89079    -0.00000     0.00000    -0.00000
  n-local   679.58797   677.87597   674.76674    -0.00000    -0.00000     1.88250
  augment  -126.39325  -130.43465  -128.86654     0.00000     0.00000     0.00000
  Kinetic   569.41139   620.31429   600.30509     0.00000    -0.00000     7.59847
  Fock        0.00000     0.00000     0.00000     0.00000     0.00000     0.00000
  vdW        -0.23282    -1.41063    -0.99576    -0.00000    -0.00000     0.00000
  -------------------------------------------------------------------------------------
  Total      -0.38190    -0.63192     1.23548     0.00000     0.00000     0.00000
  in kB      -1.28330    -2.12345     4.15159     0.00000     0.00000     0.00000
  external pressure =        0.25 kB  Pullay stress =        0.00 kB


 VOLUME and BASIS-vectors are now :
 -----------------------------------------------------------------------------
  energy-cutoff  :      400.00
  volume of cell :      476.80
      direct lattice vectors                 reciprocal lattice vectors
     3.342886000  0.000000000  0.000000000     0.299142717  0.000000000  0.000000000
     0.000000000 32.602409000  0.000000000     0.000000000  0.030672580  0.000000000
     0.000000000  0.000000000  4.374831000     0.000000000  0.000000000  0.228580258

  length of vectors
     3.342886000 32.602409000  4.374831000     0.299142717  0.030672580  0.228580258


 FORCES acting on ions
    electron-ion (+dipol)            ewald-force                    non-local-force                 convergence-correction
 -----------------------------------------------------------------------------------------------
   -.242E-14 0.823E+03 -.290E+02   0.114E-14 -.828E+03 0.342E+02   0.000E+00 0.577E+01 -.519E+01   -.361E-14 -.162E-02 -.487E-03
   0.474E-14 0.823E+03 0.290E+02   -.458E-14 -.828E+03 -.342E+02   0.000E+00 0.577E+01 0.519E+01   -.263E-14 -.162E-02 0.487E-03
   -.126E-14 0.459E+03 0.260E+02   0.181E-14 -.453E+03 -.313E+02   -.278E-16 -.546E+01 0.525E+01   0.775E-15 -.250E-02 0.824E-04
   0.438E-14 0.459E+03 -.260E+02   -.613E-14 -.453E+03 0.313E+02   0.278E-16 -.546E+01 -.525E+01   -.332E-14 -.250E-02 -.824E-04
   0.319E-14 0.183E+03 -.262E+02   0.754E-15 -.189E+03 0.314E+02   0.000E+00 0.540E+01 -.524E+01   0.144E-14 0.442E-02 -.142E-02
   0.450E-15 0.183E+03 0.262E+02   -.638E-14 -.189E+03 -.314E+02   0.000E+00 0.540E+01 0.524E+01   -.219E-14 0.442E-02 0.142E-02
   0.302E-14 -.183E+03 0.262E+02   0.197E-14 0.189E+03 -.314E+02   0.000E+00 -.540E+01 0.524E+01   -.293E-14 -.442E-02 0.142E-02
   0.512E-15 -.183E+03 -.262E+02   -.498E-14 0.189E+03 0.314E+02   0.000E+00 -.540E+01 -.524E+01   0.249E-14 -.442E-02 -.142E-02
   0.721E-15 -.459E+03 -.260E+02   0.911E-15 0.453E+03 0.313E+02   0.278E-16 0.546E+01 -.525E+01   -.146E-14 0.250E-02 -.824E-04
   0.249E-14 -.459E+03 0.260E+02   -.523E-14 0.453E+03 -.313E+02   -.278E-16 0.546E+01 0.525E+01   0.338E-14 0.250E-02 0.824E-04
   0.136E-14 -.823E+03 0.290E+02   0.158E-14 0.828E+03 -.342E+02   0.000E+00 -.577E+01 0.519E+01   0.542E-14 0.162E-02 0.487E-03
   0.319E-14 -.823E+03 -.290E+02   -.679E-14 0.828E+03 0.342E+02   0.000E+00 -.577E+01 -.519E+01   0.341E-15 0.162E-02 -.487E-03
 -----------------------------------------------------------------------------------------------
   0.204E-13 0.368E-11 0.425E-10   -.259E-13 0.000E+00 -.711E-14   0.000E+00 0.266E-14 0.888E-15   -.230E-14 -.212E-11 -.372E-13
 
 
 POSITION                                       TOTAL-FORCE (eV/Angst)
 -----------------------------------------------------------------------------------
      0.00000     10.00001      4.02014         0.000000      0.059247     -0.058918
      1.67144     10.00001      2.54211         0.000000      0.059247      0.058918
      0.00000     12.14332      0.35469         0.000000     -0.057170     -0.001048
      1.67144     12.14332      1.83272        -0.000000     -0.057170      0.001048
      1.67144     15.22953      4.02014         0.000000      0.020158     -0.014517
      0.00000     15.22953      2.54211         0.000000      0.020158      0.014517
      1.67144     17.37288      0.35469        -0.000000     -0.020158      0.014517
      0.00000     17.37288      1.83272         0.000000     -0.020158     -0.014517
      0.00000     20.45909      4.02014         0.000000      0.057170      0.001048
      1.67144     20.45909      2.54211        -0.000000      0.057170     -0.001048
      0.00000     22.60240      0.35469         0.000000     -0.059247      0.058918
      1.67144     22.60240      1.83272         0.000000     -0.059247     -0.058918
 -----------------------------------------------------------------------------------
    total drift:                               -0.000000      0.000000      0.000000


--------------------------------------------------------------------------------------------------------



  FREE ENERGIE OF THE ION-ELECTRON SYSTEM (eV)
  ---------------------------------------------------
  free  energy   TOTEN  =       -66.54023367 eV

  energy  without entropy=      -66.54023365  energy(sigma->0) =      -66.54023366
 


--------------------------------------------------------------------------------------------------------


    POTLOK:  cpu time    0.1207: real time    0.1207


--------------------------------------------------------------------------------------------------------


 writing wavefunctions
     LOOP+:  cpu time   30.3771: real time   30.4893
    4ORBIT:  cpu time    0.0000: real time    0.0000
 


 total charge     
 
# of ion       s       p       d       tot
------------------------------------------
    1        1.082   1.376   0.000   2.458
    2        1.082   1.376   0.000   2.458
    3        1.083   1.372   0.000   2.455
    4        1.083   1.372   0.000   2.455
    5        1.084   1.371   0.000   2.455
    6        1.084   1.371   0.000   2.455
    7        1.084   1.371   0.000   2.455
    8        1.084   1.371   0.000   2.455
    9        1.083   1.372   0.000   2.455
   10        1.083   1.372   0.000   2.455
   11        1.082   1.376   0.000   2.458
   12        1.082   1.376   0.000   2.458
--------------------------------------------------
tot         12.998  16.474   0.000  29.471
 

 total amount of memory used by VASP MPI-rank0    40016. kBytes
=======================================================================

   base      :      30000. kBytes
   nonl-proj :       2455. kBytes
   fftplans  :        792. kBytes
   grid      :       1070. kBytes
   one-center:          6. kBytes
   wavefun   :       5693. kBytes
 
  
  
 General timing and accounting informations for this job:
 ========================================================
  
                  Total CPU time used (sec):       37.105
                            User time (sec):       34.691
                          System time (sec):        2.414
                         Elapsed time (sec):       37.820
  
                   Maximum memory used (kb):      113188.
                   Average memory used (kb):           0.
  
                          Minor page faults:        48245
                          Major page faults:            0
                 Voluntary context switches:         3185
