  12  12   1   0
  0.3973299E+02  0.3342886E-09  0.3260241E-08  0.4374831E-09  0.5000000E-15
  1.000000000000000E-004
  CAR 
 Generic Input                           
      5.13957887    -15.79874367 2000      0.94757248      1.00000000
    -15.799  0.0000E+00  0.0000E+00
    -15.788  0.0000E+00  0.0000E+00
    -15.778  0.0000E+00  0.0000E+00
    -15.767  0.0000E+00  0.0000E+00
    -15.757  0.0000E+00  0.0000E+00
    -15.746  0.0000E+00  0.0000E+00
    -15.736  0.0000E+00  0.0000E+00
    -15.725  0.0000E+00  0.0000E+00
    -15.715  0.0000E+00  0.0000E+00
    -15.704  0.0000E+00  0.0000E+00
    -15.694  0.0000E+00  0.0000E+00
    -15.684  0.0000E+00  0.0000E+00
    -15.673  0.0000E+00  0.0000E+00
    -15.663  0.0000E+00  0.0000E+00
    -15.652  0.0000E+00  0.0000E+00
    -15.642  0.0000E+00  0.0000E+00
    -15.631  0.0000E+00  0.0000E+00
    -15.621  0.0000E+00  0.0000E+00
    -15.610  0.0000E+00  0.0000E+00
    -15.600  0.0000E+00  0.0000E+00
    -15.589  0.0000E+00  0.0000E+00
    -15.579  0.0000E+00  0.0000E+00
    -15.568  0.0000E+00  0.0000E+00
    -15.558  0.0000E+00  0.0000E+00
    -15.547  0.0000E+00  0.0000E+00
    -15.537  0.0000E+00  0.0000E+00
    -15.526  0.0000E+00  0.0000E+00
    -15.516  0.0000E+00  0.0000E+00
    -15.505  0.0000E+00  0.0000E+00
    -15.495  0.0000E+00  0.0000E+00
    -15.485  0.0000E+00  0.0000E+00
    -15.474  0.0000E+00  0.0000E+00
    -15.464  0.0000E+00  0.0000E+00
    -15.453  0.0000E+00  0.0000E+00
    -15.443  0.0000E+00  0.0000E+00
    -15.432  0.0000E+00  0.0000E+00
    -15.422  0.0000E+00  0.0000E+00
    -15.411  0.0000E+00  0.0000E+00
    -15.401  0.0000E+00  0.0000E+00
    -15.390  0.0000E+00  0.0000E+00
    -15.380  0.0000E+00  0.0000E+00
    -15.369  0.0000E+00  0.0000E+00
    -15.359  0.0000E+00  0.0000E+00
    -15.348  0.0000E+00  0.0000E+00
    -15.338  0.0000E+00  0.0000E+00
    -15.327  0.0000E+00  0.0000E+00
    -15.317  0.0000E+00  0.0000E+00
    -15.306  0.0000E+00  0.0000E+00
    -15.296  0.0000E+00  0.0000E+00
    -15.285  0.0000E+00  0.0000E+00
    -15.275  0.0000E+00  0.0000E+00
    -15.265  0.0000E+00  0.0000E+00
    -15.254  0.0000E+00  0.0000E+00
    -15.244  0.0000E+00  0.0000E+00
    -15.233  0.0000E+00  0.0000E+00
    -15.223  0.0000E+00  0.0000E+00
    -15.212  0.0000E+00  0.0000E+00
    -15.202  0.0000E+00  0.0000E+00
    -15.191  0.0000E+00  0.0000E+00
    -15.181  0.0000E+00  0.0000E+00
    -15.170  0.0000E+00  0.0000E+00
    -15.160  0.0000E+00  0.0000E+00
    -15.149  0.0000E+00  0.0000E+00
    -15.139  0.0000E+00  0.0000E+00
    -15.128  0.0000E+00  0.0000E+00
    -15.118  0.0000E+00  0.0000E+00
    -15.107  0.0000E+00  0.0000E+00
    -15.097  0.0000E+00  0.0000E+00
    -15.086  0.0000E+00  0.0000E+00
    -15.076  0.0000E+00  0.0000E+00
    -15.066  0.0000E+00  0.0000E+00
    -15.055  0.0000E+00  0.0000E+00
    -15.045  0.0000E+00  0.0000E+00
    -15.034  0.0000E+00  0.0000E+00
    -15.024  0.0000E+00  0.0000E+00
    -15.013  0.0000E+00  0.0000E+00
    -15.003  0.0000E+00  0.0000E+00
    -14.992  0.0000E+00  0.0000E+00
    -14.982  0.0000E+00  0.0000E+00
    -14.971  0.0000E+00  0.0000E+00
    -14.961  0.0000E+00  0.0000E+00
    -14.950  0.0000E+00  0.0000E+00
    -14.940  0.0000E+00  0.0000E+00
    -14.929  0.0000E+00  0.0000E+00
    -14.919  0.0000E+00  0.0000E+00
    -14.908  0.0000E+00  0.0000E+00
    -14.898  0.4634E-11  0.4854E-13
    -14.887  0.8315E-07  0.8710E-09
    -14.877  0.1762E-03  0.1847E-05
    -14.867  0.4572E-01  0.4808E-03
    -14.856  0.1552E+01  0.1673E-01
    -14.846  0.7632E+01  0.9667E-01
    -14.835  0.5948E+01  0.1590E+00
    -14.825  0.7221E+00  0.1665E+00
    -14.814  0.1233E-01  0.1667E+00
    -14.804  0.2693E-04  0.1667E+00
    -14.793  0.7115E-08  0.1667E+00
    -14.783  0.2297E-12  0.1667E+00
    -14.772  0.4996E-09  0.1667E+00
    -14.762  0.3413E-05  0.1667E+00
    -14.751  0.2790E-02  0.1667E+00
    -14.741  0.2864E+00  0.1697E+00
    -14.730  0.4013E+01  0.2117E+00
    -14.720  0.8551E+01  0.3013E+00
    -14.709  0.2910E+01  0.3318E+00
    -14.699  0.1480E+00  0.3333E+00
    -14.688  0.1107E-02  0.3333E+00
    -14.678  0.3029E-01  0.3337E+00
    -14.668  0.1228E+01  0.3465E+00
    -14.657  0.7141E+01  0.4213E+00
    -14.647  0.6551E+01  0.4899E+00
    -14.636  0.9422E+00  0.4998E+00
    -14.626  0.1924E-01  0.5000E+00
    -14.615  0.5064E-04  0.5000E+00
    -14.605  0.1618E-07  0.5000E+00
    -14.594  0.6077E-12  0.5000E+00
    -14.584  0.0000E+00  0.5000E+00
    -14.573  0.0000E+00  0.5000E+00
    -14.563  0.0000E+00  0.5000E+00
    -14.552  0.0000E+00  0.5000E+00
    -14.542  0.0000E+00  0.5000E+00
    -14.531  0.0000E+00  0.5000E+00
    -14.521  0.0000E+00  0.5000E+00
    -14.510  0.0000E+00  0.5000E+00
    -14.500  0.0000E+00  0.5000E+00
    -14.489  0.0000E+00  0.5000E+00
    -14.479  0.0000E+00  0.5000E+00
    -14.468  0.0000E+00  0.5000E+00
    -14.458  0.0000E+00  0.5000E+00
    -14.448  0.0000E+00  0.5000E+00
    -14.437  0.0000E+00  0.5000E+00
    -14.427  0.0000E+00  0.5000E+00
    -14.416  0.0000E+00  0.5000E+00
    -14.406  0.0000E+00  0.5000E+00
    -14.395  0.0000E+00  0.5000E+00
    -14.385  0.0000E+00  0.5000E+00
    -14.374  0.0000E+00  0.5000E+00
    -14.364  0.0000E+00  0.5000E+00
    -14.353  0.0000E+00  0.5000E+00
    -14.343  0.0000E+00  0.5000E+00
    -14.332  0.0000E+00  0.5000E+00
    -14.322  0.0000E+00  0.5000E+00
    -14.311  0.0000E+00  0.5000E+00
    -14.301  0.0000E+00  0.5000E+00
    -14.290  0.3533E-14  0.5000E+00
    -14.280  0.2206E-09  0.5000E+00
    -14.269  0.2078E-05  0.5000E+00
    -14.259  0.2331E-02  0.5000E+00
    -14.249  0.3253E+00  0.5034E+00
    -14.238  0.6104E+01  0.5674E+00
    -14.228  0.1716E+02  0.7471E+00
    -14.217  0.7705E+01  0.8278E+00
    -14.207  0.5249E+00  0.8333E+00
    -14.196  0.4870E-02  0.8333E+00
    -14.186  0.5663E-05  0.8333E+00
    -14.175  0.8188E-09  0.8333E+00
    -14.165  0.4644E-06  0.8333E+00
    -14.154  0.8421E-03  0.8333E+00
    -14.144  0.1945E+00  0.8354E+00
    -14.133  0.6172E+01  0.9000E+00
    -14.123  0.2991E+02  0.1213E+01
    -14.112  0.2412E+02  0.1466E+01
    -14.102  0.3190E+01  0.1499E+01
    -14.091  0.1623E+00  0.1501E+01
    -14.081  0.3254E+01  0.1535E+01
    -14.070  0.1545E+02  0.1697E+01
    -14.060  0.1163E+02  0.1819E+01
    -14.050  0.1363E+01  0.1833E+01
    -14.039  0.2242E-01  0.1833E+01
    -14.029  0.1119E-01  0.1833E+01
    -14.018  0.8865E+00  0.1843E+01
    -14.008  0.9759E+01  0.1945E+01
    -13.997  0.1653E+02  0.2118E+01
    -13.987  0.4460E+01  0.2165E+01
    -13.976  0.1774E+00  0.2167E+01
    -13.966  0.3526E-02  0.2167E+01
    -13.955  0.3485E+00  0.2170E+01
    -13.945  0.6318E+01  0.2237E+01
    -13.934  0.1719E+02  0.2417E+01
    -13.924  0.7471E+01  0.2495E+01
    -13.913  0.4918E+00  0.2500E+01
    -13.903  0.4401E-02  0.2500E+01
    -13.892  0.4931E-05  0.2500E+01
    -13.882  0.6603E-09  0.2500E+01
    -13.871  0.1060E-13  0.2500E+01
    -13.861  0.0000E+00  0.2500E+01
    -13.851  0.0000E+00  0.2500E+01
    -13.840  0.0000E+00  0.2500E+01
    -13.830  0.0000E+00  0.2500E+01
    -13.819  0.0000E+00  0.2500E+01
    -13.809  0.0000E+00  0.2500E+01
    -13.798  0.0000E+00  0.2500E+01
    -13.788  0.0000E+00  0.2500E+01
    -13.777  0.0000E+00  0.2500E+01
    -13.767  0.0000E+00  0.2500E+01
    -13.756  0.0000E+00  0.2500E+01
    -13.746  0.0000E+00  0.2500E+01
    -13.735  0.0000E+00  0.2500E+01
    -13.725  0.0000E+00  0.2500E+01
    -13.714  0.0000E+00  0.2500E+01
    -13.704  0.0000E+00  0.2500E+01
    -13.693  0.0000E+00  0.2500E+01
    -13.683  0.0000E+00  0.2500E+01
    -13.672  0.0000E+00  0.2500E+01
    -13.662  0.0000E+00  0.2500E+01
    -13.651  0.0000E+00  0.2500E+01
    -13.641  0.0000E+00  0.2500E+01
    -13.631  0.0000E+00  0.2500E+01
    -13.620  0.0000E+00  0.2500E+01
    -13.610  0.0000E+00  0.2500E+01
    -13.599  0.0000E+00  0.2500E+01
    -13.589  0.3533E-14  0.2500E+01
    -13.578  0.2277E-09  0.2500E+01
    -13.568  0.2461E-05  0.2500E+01
    -13.557  0.3163E-02  0.2500E+01
    -13.547  0.5036E+00  0.2505E+01
    -13.536  0.1072E+02  0.2618E+01
    -13.526  0.3393E+02  0.2973E+01
    -13.515  0.1715E+02  0.3153E+01
    -13.505  0.1323E+01  0.3167E+01
    -13.494  0.1400E-01  0.3167E+01
    -13.484  0.1863E-04  0.3167E+01
    -13.473  0.3469E-08  0.3167E+01
    -13.463  0.4557E-05  0.3167E+01
    -13.452  0.4991E-02  0.3167E+01
    -13.442  0.6804E+00  0.3174E+01
    -13.432  0.1248E+02  0.3305E+01
    -13.421  0.3436E+02  0.3664E+01
    -13.411  0.1511E+02  0.3823E+01
    -13.400  0.1022E+01  0.3833E+01
    -13.390  0.1412E+01  0.3848E+01
    -13.379  0.1761E+02  0.4033E+01
    -13.369  0.3379E+02  0.4387E+01
    -13.358  0.1035E+02  0.4495E+01
    -13.348  0.4707E+00  0.4500E+01
    -13.337  0.2856E-02  0.4500E+01
    -13.327  0.2145E-05  0.4500E+01
    -13.316  0.1915E-09  0.4500E+01
    -13.306  0.0000E+00  0.4500E+01
    -13.295  0.0000E+00  0.4500E+01
    -13.285  0.0000E+00  0.4500E+01
    -13.274  0.0000E+00  0.4500E+01
    -13.264  0.0000E+00  0.4500E+01
    -13.253  0.0000E+00  0.4500E+01
    -13.243  0.0000E+00  0.4500E+01
    -13.233  0.0000E+00  0.4500E+01
    -13.222  0.0000E+00  0.4500E+01
    -13.212  0.0000E+00  0.4500E+01
    -13.201  0.0000E+00  0.4500E+01
    -13.191  0.0000E+00  0.4500E+01
    -13.180  0.0000E+00  0.4500E+01
    -13.170  0.0000E+00  0.4500E+01
    -13.159  0.0000E+00  0.4500E+01
    -13.149  0.0000E+00  0.4500E+01
    -13.138  0.0000E+00  0.4500E+01
    -13.128  0.0000E+00  0.4500E+01
    -13.117  0.0000E+00  0.4500E+01
    -13.107  0.0000E+00  0.4500E+01
    -13.096  0.0000E+00  0.4500E+01
    -13.086  0.0000E+00  0.4500E+01
    -13.075  0.0000E+00  0.4500E+01
    -13.065  0.0000E+00  0.4500E+01
    -13.054  0.0000E+00  0.4500E+01
    -13.044  0.0000E+00  0.4500E+01
    -13.034  0.0000E+00  0.4500E+01
    -13.023  0.0000E+00  0.4500E+01
    -13.013  0.0000E+00  0.4500E+01
    -13.002  0.0000E+00  0.4500E+01
    -12.992  0.0000E+00  0.4500E+01
    -12.981  0.0000E+00  0.4500E+01
    -12.971  0.0000E+00  0.4500E+01
    -12.960  0.0000E+00  0.4500E+01
    -12.950  0.0000E+00  0.4500E+01
    -12.939  0.0000E+00  0.4500E+01
    -12.929  0.0000E+00  0.4500E+01
    -12.918  0.0000E+00  0.4500E+01
    -12.908  0.0000E+00  0.4500E+01
    -12.897  0.0000E+00  0.4500E+01
    -12.887  0.0000E+00  0.4500E+01
    -12.876  0.5123E-13  0.4500E+01
    -12.866  0.2479E-08  0.4500E+01
    -12.855  0.1389E-04  0.4500E+01
    -12.845  0.9345E-02  0.4500E+01
    -12.834  0.7942E+00  0.4508E+01
    -12.824  0.9304E+01  0.4606E+01
    -12.814  0.1672E+02  0.4781E+01
    -12.803  0.4792E+01  0.4831E+01
    -12.793  0.2031E+00  0.4833E+01
    -12.782  0.1145E-02  0.4833E+01
    -12.772  0.2725E-03  0.4833E+01
    -12.761  0.7672E-01  0.4834E+01
    -12.751  0.2881E+01  0.4864E+01
    -12.740  0.1765E+02  0.5049E+01
    -12.730  0.2727E+02  0.5335E+01
    -12.719  0.1408E+02  0.5482E+01
    -12.709  0.1662E+01  0.5500E+01
    -12.698  0.3029E-01  0.5500E+01
    -12.688  0.7182E-04  0.5500E+01
    -12.677  0.2067E-07  0.5500E+01
    -12.667  0.6996E-12  0.5500E+01
    -12.656  0.0000E+00  0.5500E+01
    -12.646  0.0000E+00  0.5500E+01
    -12.635  0.0000E+00  0.5500E+01
    -12.625  0.0000E+00  0.5500E+01
    -12.615  0.0000E+00  0.5500E+01
    -12.604  0.0000E+00  0.5500E+01
    -12.594  0.0000E+00  0.5500E+01
    -12.583  0.0000E+00  0.5500E+01
    -12.573  0.0000E+00  0.5500E+01
    -12.562  0.0000E+00  0.5500E+01
    -12.552  0.0000E+00  0.5500E+01
    -12.541  0.0000E+00  0.5500E+01
    -12.531  0.0000E+00  0.5500E+01
    -12.520  0.0000E+00  0.5500E+01
    -12.510  0.0000E+00  0.5500E+01
    -12.499  0.0000E+00  0.5500E+01
    -12.489  0.0000E+00  0.5500E+01
    -12.478  0.0000E+00  0.5500E+01
    -12.468  0.0000E+00  0.5500E+01
    -12.457  0.0000E+00  0.5500E+01
    -12.447  0.0000E+00  0.5500E+01
    -12.436  0.0000E+00  0.5500E+01
    -12.426  0.8833E-15  0.5500E+01
    -12.416  0.6016E-10  0.5500E+01
    -12.405  0.6428E-06  0.5500E+01
    -12.395  0.8168E-03  0.5500E+01
    -12.384  0.1287E+00  0.5501E+01
    -12.374  0.2710E+01  0.5530E+01
    -12.363  0.8494E+01  0.5619E+01
    -12.353  0.4251E+01  0.5663E+01
    -12.342  0.3246E+00  0.5667E+01
    -12.332  0.3397E-02  0.5667E+01
    -12.321  0.4471E-05  0.5667E+01
    -12.311  0.7054E-09  0.5667E+01
    -12.300  0.1413E-13  0.5667E+01
    -12.290  0.0000E+00  0.5667E+01
    -12.279  0.0000E+00  0.5667E+01
    -12.269  0.0000E+00  0.5667E+01
    -12.258  0.0000E+00  0.5667E+01
    -12.248  0.0000E+00  0.5667E+01
    -12.237  0.0000E+00  0.5667E+01
    -12.227  0.0000E+00  0.5667E+01
    -12.216  0.0000E+00  0.5667E+01
    -12.206  0.3533E-14  0.5667E+01
    -12.196  0.2877E-09  0.5667E+01
    -12.185  0.2962E-05  0.5667E+01
    -12.175  0.3629E-02  0.5667E+01
    -12.164  0.5516E+00  0.5672E+01
    -12.154  0.1123E+02  0.5790E+01
    -12.143  0.3411E+02  0.6147E+01
    -12.133  0.1741E+02  0.6330E+01
    -12.122  0.7616E+01  0.6410E+01
    -12.112  0.7291E+01  0.6486E+01
    -12.101  0.1312E+01  0.6500E+01
    -12.091  0.6584E+00  0.6507E+01
    -12.080  0.1425E+02  0.6656E+01
    -12.070  0.5928E+02  0.7277E+01
    -12.059  0.6054E+02  0.7911E+01
    -12.049  0.2182E+02  0.8139E+01
    -12.038  0.2545E+01  0.8166E+01
    -12.028  0.5614E-01  0.8167E+01
    -12.017  0.1706E-03  0.8167E+01
    -12.007  0.6378E-07  0.8167E+01
    -11.997  0.1504E-07  0.8167E+01
    -11.986  0.5620E-04  0.8167E+01
    -11.976  0.2542E-01  0.8167E+01
    -11.965  0.1478E+01  0.8182E+01
    -11.955  0.1249E+02  0.8313E+01
    -11.944  0.2040E+02  0.8527E+01
    -11.934  0.1116E+02  0.8644E+01
    -11.923  0.2128E+01  0.8666E+01
    -11.913  0.1633E+01  0.8683E+01
    -11.902  0.1224E+02  0.8812E+01
    -11.892  0.1500E+02  0.8969E+01
    -11.881  0.2908E+01  0.8999E+01
    -11.871  0.8149E-01  0.9000E+01
    -11.860  0.2980E-03  0.9000E+01
    -11.850  0.1333E-06  0.9000E+01
    -11.839  0.7034E-11  0.9000E+01
    -11.829  0.0000E+00  0.9000E+01
    -11.818  0.0000E+00  0.9000E+01
    -11.808  0.0000E+00  0.9000E+01
    -11.798  0.0000E+00  0.9000E+01
    -11.787  0.0000E+00  0.9000E+01
    -11.777  0.0000E+00  0.9000E+01
    -11.766  0.9268E-10  0.9000E+01
    -11.756  0.1204E-05  0.9000E+01
    -11.745  0.1856E-02  0.9000E+01
    -11.735  0.3530E+00  0.9004E+01
    -11.724  0.8895E+01  0.9097E+01
    -11.714  0.3304E+02  0.9443E+01
    -11.703  0.1955E+02  0.9648E+01
    -11.693  0.1781E+01  0.9666E+01
    -11.682  0.2243E-01  0.9667E+01
    -11.672  0.4560E-04  0.9667E+01
    -11.661  0.8783E-02  0.9667E+01
    -11.651  0.9822E+00  0.9677E+01
    -11.640  0.1493E+02  0.9833E+01
    -11.630  0.3468E+02  0.1020E+02
    -11.619  0.2249E+02  0.1043E+02
    -11.609  0.4697E+02  0.1092E+02
    -11.599  0.3486E+02  0.1129E+02
    -11.588  0.4127E+01  0.1133E+02
    -11.578  0.6931E-01  0.1133E+02
    -11.567  0.1503E-03  0.1133E+02
    -11.557  0.3978E-07  0.1133E+02
    -11.546  0.1244E-11  0.1133E+02
    -11.536  0.0000E+00  0.1133E+02
    -11.525  0.0000E+00  0.1133E+02
    -11.515  0.0000E+00  0.1133E+02
    -11.504  0.0000E+00  0.1133E+02
    -11.494  0.0000E+00  0.1133E+02
    -11.483  0.0000E+00  0.1133E+02
    -11.473  0.0000E+00  0.1133E+02
    -11.462  0.0000E+00  0.1133E+02
    -11.452  0.0000E+00  0.1133E+02
    -11.441  0.0000E+00  0.1133E+02
    -11.431  0.0000E+00  0.1133E+02
    -11.420  0.5699E-11  0.1133E+02
    -11.410  0.1125E-06  0.1133E+02
    -11.399  0.2621E-03  0.1133E+02
    -11.389  0.7460E-01  0.1133E+02
    -11.379  0.2766E+01  0.1136E+02
    -11.368  0.1479E+02  0.1152E+02
    -11.358  0.1251E+02  0.1165E+02
    -11.347  0.1653E+01  0.1167E+02
    -11.337  0.3086E-01  0.1167E+02
    -11.326  0.7399E-04  0.1167E+02
    -11.316  0.2149E-07  0.1167E+02
    -11.305  0.7349E-12  0.1167E+02
    -11.295  0.0000E+00  0.1167E+02
    -11.284  0.0000E+00  0.1167E+02
    -11.274  0.0000E+00  0.1167E+02
    -11.263  0.0000E+00  0.1167E+02
    -11.253  0.0000E+00  0.1167E+02
    -11.242  0.1216E-10  0.1167E+02
    -11.232  0.2067E-06  0.1167E+02
    -11.221  0.4155E-03  0.1167E+02
    -11.211  0.1024E+00  0.1167E+02
    -11.200  0.3305E+01  0.1170E+02
    -11.190  0.1551E+02  0.1186E+02
    -11.180  0.1155E+02  0.1199E+02
    -11.169  0.1337E+01  0.1200E+02
    -11.159  0.2170E-01  0.1200E+02
    -11.148  0.4498E-04  0.1200E+02
    -11.138  0.1127E-07  0.1200E+02
    -11.127  0.3321E-12  0.1200E+02
    -11.117  0.0000E+00  0.1200E+02
    -11.106  0.0000E+00  0.1200E+02
    -11.096  0.0000E+00  0.1200E+02
    -11.085  0.0000E+00  0.1200E+02
    -11.075  0.0000E+00  0.1200E+02
    -11.064  0.0000E+00  0.1200E+02
    -11.054  0.0000E+00  0.1200E+02
    -11.043  0.0000E+00  0.1200E+02
    -11.033  0.0000E+00  0.1200E+02
    -11.022  0.0000E+00  0.1200E+02
    -11.012  0.0000E+00  0.1200E+02
    -11.001  0.0000E+00  0.1200E+02
    -10.991  0.0000E+00  0.1200E+02
    -10.981  0.0000E+00  0.1200E+02
    -10.970  0.0000E+00  0.1200E+02
    -10.960  0.0000E+00  0.1200E+02
    -10.949  0.0000E+00  0.1200E+02
    -10.939  0.0000E+00  0.1200E+02
    -10.928  0.0000E+00  0.1200E+02
    -10.918  0.0000E+00  0.1200E+02
    -10.907  0.0000E+00  0.1200E+02
    -10.897  0.0000E+00  0.1200E+02
    -10.886  0.0000E+00  0.1200E+02
    -10.876  0.0000E+00  0.1200E+02
    -10.865  0.0000E+00  0.1200E+02
    -10.855  0.0000E+00  0.1200E+02
    -10.844  0.0000E+00  0.1200E+02
    -10.834  0.0000E+00  0.1200E+02
    -10.823  0.0000E+00  0.1200E+02
    -10.813  0.0000E+00  0.1200E+02
    -10.802  0.0000E+00  0.1200E+02
    -10.792  0.0000E+00  0.1200E+02
    -10.782  0.0000E+00  0.1200E+02
    -10.771  0.0000E+00  0.1200E+02
    -10.761  0.0000E+00  0.1200E+02
    -10.750  0.0000E+00  0.1200E+02
    -10.740  0.0000E+00  0.1200E+02
    -10.729  0.0000E+00  0.1200E+02
    -10.719  0.0000E+00  0.1200E+02
    -10.708  0.0000E+00  0.1200E+02
    -10.698  0.0000E+00  0.1200E+02
    -10.687  0.0000E+00  0.1200E+02
    -10.677  0.0000E+00  0.1200E+02
    -10.666  0.0000E+00  0.1200E+02
    -10.656  0.0000E+00  0.1200E+02
    -10.645  0.0000E+00  0.1200E+02
    -10.635  0.0000E+00  0.1200E+02
    -10.624  0.0000E+00  0.1200E+02
    -10.614  0.0000E+00  0.1200E+02
    -10.603  0.0000E+00  0.1200E+02
    -10.593  0.0000E+00  0.1200E+02
    -10.582  0.0000E+00  0.1200E+02
    -10.572  0.0000E+00  0.1200E+02
    -10.562  0.0000E+00  0.1200E+02
    -10.551  0.0000E+00  0.1200E+02
    -10.541  0.0000E+00  0.1200E+02
    -10.530  0.0000E+00  0.1200E+02
    -10.520  0.0000E+00  0.1200E+02
    -10.509  0.0000E+00  0.1200E+02
    -10.499  0.0000E+00  0.1200E+02
    -10.488  0.0000E+00  0.1200E+02
    -10.478  0.0000E+00  0.1200E+02
    -10.467  0.0000E+00  0.1200E+02
    -10.457  0.0000E+00  0.1200E+02
    -10.446  0.0000E+00  0.1200E+02
    -10.436  0.0000E+00  0.1200E+02
    -10.425  0.0000E+00  0.1200E+02
    -10.415  0.0000E+00  0.1200E+02
    -10.404  0.0000E+00  0.1200E+02
    -10.394  0.0000E+00  0.1200E+02
    -10.383  0.0000E+00  0.1200E+02
    -10.373  0.0000E+00  0.1200E+02
    -10.363  0.0000E+00  0.1200E+02
    -10.352  0.0000E+00  0.1200E+02
    -10.342  0.0000E+00  0.1200E+02
    -10.331  0.0000E+00  0.1200E+02
    -10.321  0.0000E+00  0.1200E+02
    -10.310  0.0000E+00  0.1200E+02
    -10.300  0.0000E+00  0.1200E+02
    -10.289  0.0000E+00  0.1200E+02
    -10.279  0.0000E+00  0.1200E+02
    -10.268  0.0000E+00  0.1200E+02
    -10.258  0.0000E+00  0.1200E+02
    -10.247  0.0000E+00  0.1200E+02
    -10.237  0.0000E+00  0.1200E+02
    -10.226  0.0000E+00  0.1200E+02
    -10.216  0.0000E+00  0.1200E+02
    -10.205  0.0000E+00  0.1200E+02
    -10.195  0.0000E+00  0.1200E+02
    -10.184  0.0000E+00  0.1200E+02
    -10.174  0.0000E+00  0.1200E+02
    -10.164  0.0000E+00  0.1200E+02
    -10.153  0.0000E+00  0.1200E+02
    -10.143  0.0000E+00  0.1200E+02
    -10.132  0.0000E+00  0.1200E+02
    -10.122  0.0000E+00  0.1200E+02
    -10.111  0.0000E+00  0.1200E+02
    -10.101  0.0000E+00  0.1200E+02
    -10.090  0.0000E+00  0.1200E+02
    -10.080  0.0000E+00  0.1200E+02
    -10.069  0.0000E+00  0.1200E+02
    -10.059  0.0000E+00  0.1200E+02
    -10.048  0.0000E+00  0.1200E+02
    -10.038  0.0000E+00  0.1200E+02
    -10.027  0.0000E+00  0.1200E+02
    -10.017  0.0000E+00  0.1200E+02
    -10.006  0.0000E+00  0.1200E+02
     -9.996  0.0000E+00  0.1200E+02
     -9.985  0.0000E+00  0.1200E+02
     -9.975  0.0000E+00  0.1200E+02
     -9.965  0.0000E+00  0.1200E+02
     -9.954  0.0000E+00  0.1200E+02
     -9.944  0.0000E+00  0.1200E+02
     -9.933  0.0000E+00  0.1200E+02
     -9.923  0.0000E+00  0.1200E+02
     -9.912  0.0000E+00  0.1200E+02
     -9.902  0.0000E+00  0.1200E+02
     -9.891  0.0000E+00  0.1200E+02
     -9.881  0.0000E+00  0.1200E+02
     -9.870  0.0000E+00  0.1200E+02
     -9.860  0.0000E+00  0.1200E+02
     -9.849  0.0000E+00  0.1200E+02
     -9.839  0.0000E+00  0.1200E+02
     -9.828  0.0000E+00  0.1200E+02
     -9.818  0.0000E+00  0.1200E+02
     -9.807  0.0000E+00  0.1200E+02
     -9.797  0.0000E+00  0.1200E+02
     -9.786  0.0000E+00  0.1200E+02
     -9.776  0.0000E+00  0.1200E+02
     -9.765  0.0000E+00  0.1200E+02
     -9.755  0.0000E+00  0.1200E+02
     -9.745  0.0000E+00  0.1200E+02
     -9.734  0.0000E+00  0.1200E+02
     -9.724  0.0000E+00  0.1200E+02
     -9.713  0.0000E+00  0.1200E+02
     -9.703  0.0000E+00  0.1200E+02
     -9.692  0.0000E+00  0.1200E+02
     -9.682  0.0000E+00  0.1200E+02
     -9.671  0.0000E+00  0.1200E+02
     -9.661  0.0000E+00  0.1200E+02
     -9.650  0.0000E+00  0.1200E+02
     -9.640  0.0000E+00  0.1200E+02
     -9.629  0.0000E+00  0.1200E+02
     -9.619  0.0000E+00  0.1200E+02
     -9.608  0.0000E+00  0.1200E+02
     -9.598  0.0000E+00  0.1200E+02
     -9.587  0.0000E+00  0.1200E+02
     -9.577  0.0000E+00  0.1200E+02
     -9.566  0.0000E+00  0.1200E+02
     -9.556  0.0000E+00  0.1200E+02
     -9.546  0.0000E+00  0.1200E+02
     -9.535  0.0000E+00  0.1200E+02
     -9.525  0.0000E+00  0.1200E+02
     -9.514  0.5054E-10  0.1200E+02
     -9.504  0.7426E-06  0.1200E+02
     -9.493  0.1292E-02  0.1200E+02
     -9.483  0.2764E+00  0.1200E+02
     -9.472  0.7797E+01  0.1208E+02
     -9.462  0.3222E+02  0.1242E+02
     -9.451  0.2117E+02  0.1264E+02
     -9.441  0.2191E+01  0.1267E+02
     -9.430  0.1937E+01  0.1269E+02
     -9.420  0.1316E+02  0.1282E+02
     -9.409  0.1458E+02  0.1298E+02
     -9.399  0.8688E+01  0.1307E+02
     -9.388  0.1724E+02  0.1325E+02
     -9.378  0.7675E+01  0.1333E+02
     -9.367  0.5673E+01  0.1339E+02
     -9.357  0.3516E+02  0.1376E+02
     -9.347  0.5885E+02  0.1437E+02
     -9.336  0.2567E+02  0.1464E+02
     -9.326  0.2277E+01  0.1467E+02
     -9.315  0.7931E+00  0.1467E+02
     -9.305  0.1321E+02  0.1481E+02
     -9.294  0.3442E+02  0.1517E+02
     -9.284  0.1434E+02  0.1532E+02
     -9.273  0.9024E+00  0.1533E+02
     -9.263  0.7702E-02  0.1533E+02
     -9.252  0.8218E-05  0.1533E+02
     -9.242  0.1047E-08  0.1533E+02
     -9.231  0.1413E-13  0.1533E+02
     -9.221  0.2827E-13  0.1533E+02
     -9.210  0.1518E-08  0.1533E+02
     -9.200  0.9468E-05  0.1533E+02
     -9.189  0.7081E-02  0.1533E+02
     -9.179  0.6666E+00  0.1534E+02
     -9.168  0.8604E+01  0.1543E+02
     -9.158  0.1696E+02  0.1561E+02
     -9.148  0.5336E+01  0.1566E+02
     -9.137  0.2497E+00  0.1567E+02
     -9.127  0.1561E-02  0.1567E+02
     -9.116  0.1209E-05  0.1567E+02
     -9.106  0.2278E-08  0.1567E+02
     -9.095  0.1454E-04  0.1567E+02
     -9.085  0.1169E-01  0.1567E+02
     -9.074  0.1180E+01  0.1568E+02
     -9.064  0.1627E+02  0.1585E+02
     -9.053  0.3416E+02  0.1621E+02
     -9.043  0.1167E+02  0.1633E+02
     -9.032  0.5578E+01  0.1639E+02
     -9.022  0.1684E+02  0.1656E+02
     -9.011  0.1006E+02  0.1667E+02
     -9.001  0.1118E+02  0.1679E+02
     -8.990  0.1620E+02  0.1696E+02
     -8.980  0.3995E+01  0.1700E+02
     -8.969  0.1446E+00  0.1700E+02
     -8.959  0.6906E-03  0.1700E+02
     -8.948  0.4059E-06  0.1700E+02
     -8.938  0.2825E-10  0.1700E+02
     -8.928  0.0000E+00  0.1700E+02
     -8.917  0.2130E-11  0.1700E+02
     -8.907  0.5818E-07  0.1700E+02
     -8.896  0.1867E-03  0.1700E+02
     -8.886  0.7269E-01  0.1700E+02
     -8.875  0.3643E+01  0.1704E+02
     -8.865  0.2590E+02  0.1731E+02
     -8.854  0.2884E+02  0.1761E+02
     -8.844  0.5068E+01  0.1767E+02
     -8.833  0.1280E+00  0.1767E+02
     -8.823  0.1746E-02  0.1767E+02
     -8.812  0.2240E+00  0.1767E+02
     -8.802  0.5044E+01  0.1772E+02
     -8.791  0.1684E+02  0.1790E+02
     -8.781  0.8973E+01  0.1799E+02
     -8.770  0.7317E+00  0.1800E+02
     -8.760  0.8206E-02  0.1800E+02
     -8.749  0.5052E-03  0.1800E+02
     -8.739  0.1431E+00  0.1800E+02
     -8.729  0.5402E+01  0.1806E+02
     -8.718  0.2939E+02  0.1837E+02
     -8.708  0.2526E+02  0.1863E+02
     -8.697  0.3395E+01  0.1867E+02
     -8.687  0.6456E-01  0.1867E+02
     -8.676  0.1577E-03  0.1867E+02
     -8.666  0.4670E-07  0.1867E+02
     -8.655  0.1765E-11  0.1867E+02
     -8.645  0.5572E-08  0.1867E+02
     -8.634  0.2626E-04  0.1867E+02
     -8.624  0.1508E-01  0.1867E+02
     -8.613  0.1133E+01  0.1868E+02
     -8.603  0.1260E+02  0.1881E+02
     -8.592  0.2435E+02  0.1907E+02
     -8.582  0.9006E+01  0.1916E+02
     -8.571  0.6216E+00  0.1917E+02
     -8.561  0.6990E-02  0.1917E+02
     -8.550  0.1100E-04  0.1917E+02
     -8.540  0.1345E-03  0.1917E+02
     -8.530  0.3797E-01  0.1917E+02
     -8.519  0.1397E+01  0.1918E+02
     -8.509  0.7418E+01  0.1926E+02
     -8.498  0.6301E+01  0.1933E+02
     -8.488  0.2842E+01  0.1936E+02
     -8.477  0.8133E+01  0.1944E+02
     -8.467  0.5178E+01  0.1949E+02
     -8.456  0.5099E+00  0.1950E+02
     -8.446  0.6978E-02  0.1950E+02
     -8.435  0.1212E-04  0.1950E+02
     -8.425  0.2536E-08  0.1950E+02
     -8.414  0.6183E-13  0.1950E+02
     -8.404  0.0000E+00  0.1950E+02
     -8.393  0.0000E+00  0.1950E+02
     -8.383  0.0000E+00  0.1950E+02
     -8.372  0.0000E+00  0.1950E+02
     -8.362  0.0000E+00  0.1950E+02
     -8.351  0.0000E+00  0.1950E+02
     -8.341  0.0000E+00  0.1950E+02
     -8.330  0.0000E+00  0.1950E+02
     -8.320  0.0000E+00  0.1950E+02
     -8.310  0.0000E+00  0.1950E+02
     -8.299  0.0000E+00  0.1950E+02
     -8.289  0.0000E+00  0.1950E+02
     -8.278  0.0000E+00  0.1950E+02
     -8.268  0.0000E+00  0.1950E+02
     -8.257  0.0000E+00  0.1950E+02
     -8.247  0.0000E+00  0.1950E+02
     -8.236  0.0000E+00  0.1950E+02
     -8.226  0.0000E+00  0.1950E+02
     -8.215  0.0000E+00  0.1950E+02
     -8.205  0.0000E+00  0.1950E+02
     -8.194  0.0000E+00  0.1950E+02
     -8.184  0.0000E+00  0.1950E+02
     -8.173  0.0000E+00  0.1950E+02
     -8.163  0.0000E+00  0.1950E+02
     -8.152  0.0000E+00  0.1950E+02
     -8.142  0.0000E+00  0.1950E+02
     -8.131  0.0000E+00  0.1950E+02
     -8.121  0.0000E+00  0.1950E+02
     -8.111  0.0000E+00  0.1950E+02
     -8.100  0.0000E+00  0.1950E+02
     -8.090  0.0000E+00  0.1950E+02
     -8.079  0.0000E+00  0.1950E+02
     -8.069  0.0000E+00  0.1950E+02
     -8.058  0.0000E+00  0.1950E+02
     -8.048  0.0000E+00  0.1950E+02
     -8.037  0.0000E+00  0.1950E+02
     -8.027  0.0000E+00  0.1950E+02
     -8.016  0.0000E+00  0.1950E+02
     -8.006  0.0000E+00  0.1950E+02
     -7.995  0.0000E+00  0.1950E+02
     -7.985  0.0000E+00  0.1950E+02
     -7.974  0.0000E+00  0.1950E+02
     -7.964  0.0000E+00  0.1950E+02
     -7.953  0.0000E+00  0.1950E+02
     -7.943  0.0000E+00  0.1950E+02
     -7.932  0.0000E+00  0.1950E+02
     -7.922  0.0000E+00  0.1950E+02
     -7.912  0.0000E+00  0.1950E+02
     -7.901  0.0000E+00  0.1950E+02
     -7.891  0.0000E+00  0.1950E+02
     -7.880  0.0000E+00  0.1950E+02
     -7.870  0.0000E+00  0.1950E+02
     -7.859  0.0000E+00  0.1950E+02
     -7.849  0.0000E+00  0.1950E+02
     -7.838  0.0000E+00  0.1950E+02
     -7.828  0.0000E+00  0.1950E+02
     -7.817  0.0000E+00  0.1950E+02
     -7.807  0.0000E+00  0.1950E+02
     -7.796  0.0000E+00  0.1950E+02
     -7.786  0.0000E+00  0.1950E+02
     -7.775  0.0000E+00  0.1950E+02
     -7.765  0.0000E+00  0.1950E+02
     -7.754  0.0000E+00  0.1950E+02
     -7.744  0.0000E+00  0.1950E+02
     -7.733  0.0000E+00  0.1950E+02
     -7.723  0.0000E+00  0.1950E+02
     -7.713  0.0000E+00  0.1950E+02
     -7.702  0.0000E+00  0.1950E+02
     -7.692  0.0000E+00  0.1950E+02
     -7.681  0.0000E+00  0.1950E+02
     -7.671  0.0000E+00  0.1950E+02
     -7.660  0.0000E+00  0.1950E+02
     -7.650  0.0000E+00  0.1950E+02
     -7.639  0.0000E+00  0.1950E+02
     -7.629  0.0000E+00  0.1950E+02
     -7.618  0.0000E+00  0.1950E+02
     -7.608  0.0000E+00  0.1950E+02
     -7.597  0.5976E-11  0.1950E+02
     -7.587  0.1169E-06  0.1950E+02
     -7.576  0.2698E-03  0.1950E+02
     -7.566  0.7610E-01  0.1950E+02
     -7.555  0.2797E+01  0.1953E+02
     -7.545  0.1484E+02  0.1969E+02
     -7.534  0.1245E+02  0.1982E+02
     -7.524  0.1631E+01  0.1983E+02
     -7.513  0.3020E-01  0.1983E+02
     -7.503  0.7176E-04  0.1983E+02
     -7.493  0.2065E-07  0.1983E+02
     -7.482  0.6996E-12  0.1983E+02
     -7.472  0.0000E+00  0.1983E+02
     -7.461  0.0000E+00  0.1983E+02
     -7.451  0.2212E-10  0.1983E+02
     -7.440  0.3833E-06  0.1983E+02
     -7.430  0.7847E-03  0.1983E+02
     -7.419  0.1968E+00  0.1984E+02
     -7.409  0.6467E+01  0.1990E+02
     -7.398  0.3085E+02  0.2023E+02
     -7.388  0.2334E+02  0.2047E+02
     -7.377  0.2747E+01  0.2050E+02
     -7.367  0.4538E-01  0.2050E+02
     -7.356  0.9581E-04  0.2050E+02
     -7.346  0.2445E-07  0.2050E+02
     -7.335  0.7349E-12  0.2050E+02
     -7.325  0.0000E+00  0.2050E+02
     -7.314  0.0000E+00  0.2050E+02
     -7.304  0.0000E+00  0.2050E+02
     -7.294  0.0000E+00  0.2050E+02
     -7.283  0.2457E-11  0.2050E+02
     -7.273  0.5715E-07  0.2050E+02
     -7.262  0.1565E-03  0.2050E+02
     -7.252  0.5217E-01  0.2050E+02
     -7.241  0.2253E+01  0.2052E+02
     -7.231  0.1404E+02  0.2067E+02
     -7.220  0.1884E+02  0.2087E+02
     -7.210  0.3134E+02  0.2120E+02
     -7.199  0.2543E+02  0.2146E+02
     -7.189  0.3444E+01  0.2150E+02
     -7.178  0.6613E-01  0.2150E+02
     -7.168  0.1632E-03  0.2150E+02
     -7.157  0.4883E-07  0.2150E+02