<?xml version="1.0" encoding="ISO-8859-1"?>
<modeling>
 <generator>
  <i name="program" type="string">vasp </i>
  <i name="version" type="string">5.4.4.18Apr17-6-g9f103f2a35  </i>
  <i name="subversion" type="string">(build Jun 20 2017 18:00:50) complex            parallel </i>
  <i name="platform" type="string">LinuxIFC </i>
  <i name="date" type="string">2018 03 16 </i>
  <i name="time" type="string">15:57:25 </i>
 </generator>
 <incar>
  <i type="string" name="SYSTEM"> Generic Input</i>
  <i type="int" name="ISTART">     1</i>
  <i type="string" name="PREC">normal    ! precision level</i>
  <i type="int" name="IALGO">    53</i>
  <i type="string" name="ALGO"> Normal    ! SCF minimisation algorithm</i>
  <i type="int" name="INIWAV">     1</i>
  <i type="int" name="NELM">   200</i>
  <i type="int" name="NELMIN">     2</i>
  <i type="int" name="IBRION">     2</i>
  <i name="EDIFF">      0.00001000</i>
  <i name="EDIFFG">     -0.02000000</i>
  <i type="int" name="NSW">     0</i>
  <i type="int" name="ISIF">     3</i>
  <i type="int" name="IWAVPR">    11</i>
  <i type="int" name="NBLOCK">     1</i>
  <i type="int" name="KBLOCK">    40</i>
  <i name="ENCUT">    400.00000000</i>
  <i type="int" name="NEDOS">  2000</i>
  <i type="int" name="ISMEAR">     0</i>
  <i name="SIGMA">      0.01000000</i>
  <i type="int" name="NWRITE">     2</i>
  <i type="logical" name="LVHAR"> T  </i>
  <i type="int" name="LORBIT">    11</i>
  <i type="logical" name="LASPH"> T  </i>
  <i type="int" name="ICORELEVEL">     1</i>
  <v type="int" name="KPOINT_BSE">    -1     0     0     0</v>
  <i type="int" name="NELM">   200</i>
  <i type="string" name="GGA"> PE        ! PBEsol exchange-correlation</i>
  <i type="logical" name="LASPH"> T  </i>
 </incar>
 <structure name="primitive_cell" >
  <crystal>
   <varray name="basis" >
    <v>       3.34288600       0.00000000       0.00000000 </v>
    <v>       0.00000000      32.60240900       0.00000000 </v>
    <v>       0.00000000       0.00000000       4.37483100 </v>
   </varray>
   <i name="volume">    476.79592902 </i>
   <varray name="rec_basis" >
    <v>       0.29914272       0.00000000       0.00000000 </v>
    <v>       0.00000000       0.03067258       0.00000000 </v>
    <v>       0.00000000       0.00000000       0.22858026 </v>
   </varray>
  </crystal>
  <varray name="positions" >
   <v>       0.00000000       0.30672600      -0.08107600 </v>
   <v>      -0.50000000       0.30672600      -0.41892400 </v>
   <v>       0.00000000       0.37246700       0.08107600 </v>
   <v>      -0.50000000       0.37246700       0.41892400 </v>
   <v>       0.00000000       0.46712900      -0.41892400 </v>
   <v>      -0.50000000       0.46712900      -0.08107600 </v>
   <v>      -0.50000000      -0.46712900       0.08107600 </v>
   <v>       0.00000000      -0.46712900       0.41892400 </v>
   <v>       0.00000000      -0.37246700      -0.08107600 </v>
   <v>      -0.50000000      -0.37246700      -0.41892400 </v>
   <v>       0.00000000      -0.30672600       0.08107600 </v>
   <v>      -0.50000000      -0.30672600       0.41892400 </v>
  </varray>
 </structure>
 <varray name="primitive_index" >
  <v type="int" >        1 </v>
  <v type="int" >        2 </v>
  <v type="int" >        3 </v>
  <v type="int" >        4 </v>
  <v type="int" >        6 </v>
  <v type="int" >        5 </v>
  <v type="int" >        7 </v>
  <v type="int" >        8 </v>
  <v type="int" >        9 </v>
  <v type="int" >       10 </v>
  <v type="int" >       11 </v>
  <v type="int" >       12 </v>
 </varray>
 <kpoints>
  <generation param="Gamma">
   <v type="int" name="divisions">       7        1        6 </v>
   <v name="usershift">      0.00000000       0.00000000       0.00000000 </v>
   <v name="genvec1">      0.14285714       0.00000000       0.00000000 </v>
   <v name="genvec2">      0.00000000       1.00000000       0.00000000 </v>
   <v name="genvec3">      0.00000000       0.00000000       0.16666667 </v>
   <v name="shift">      0.00000000       0.00000000       0.00000000 </v>
  </generation>
  <varray name="kpointlist" >
   <v>       0.00000000       0.00000000       0.00000000 </v>
   <v>       0.14285714       0.00000000       0.00000000 </v>
   <v>       0.28571429       0.00000000       0.00000000 </v>
   <v>       0.42857143       0.00000000       0.00000000 </v>
   <v>       0.00000000       0.00000000       0.16666667 </v>
   <v>       0.14285714       0.00000000       0.16666667 </v>
   <v>       0.28571429       0.00000000       0.16666667 </v>
   <v>       0.42857143       0.00000000       0.16666667 </v>
   <v>       0.00000000       0.00000000       0.33333333 </v>
   <v>       0.14285714       0.00000000       0.33333333 </v>
   <v>       0.28571429       0.00000000       0.33333333 </v>
   <v>       0.42857143       0.00000000       0.33333333 </v>
   <v>       0.00000000       0.00000000       0.50000000 </v>
   <v>       0.14285714       0.00000000       0.50000000 </v>
   <v>       0.28571429       0.00000000       0.50000000 </v>
   <v>       0.42857143       0.00000000       0.50000000 </v>
  </varray>
  <varray name="weights" >
   <v>       0.02380952 </v>
   <v>       0.04761905 </v>
   <v>       0.04761905 </v>
   <v>       0.04761905 </v>
   <v>       0.04761905 </v>
   <v>       0.09523810 </v>
   <v>       0.09523810 </v>
   <v>       0.09523810 </v>
   <v>       0.04761905 </v>
   <v>       0.09523810 </v>
   <v>       0.09523810 </v>
   <v>       0.09523810 </v>
   <v>       0.02380952 </v>
   <v>       0.04761905 </v>
   <v>       0.04761905 </v>
   <v>       0.04761905 </v>
  </varray>
 </kpoints>
 <parameters>
  <separator name="general" >
   <i type="string" name="SYSTEM">Generic Input</i>
   <i type="logical" name="LCOMPAT"> F  </i>
  </separator>
  <separator name="electronic" >
   <i type="string" name="PREC">normal</i>
   <i name="ENMAX">    400.00000000</i>
   <i name="ENAUG">    342.92400000</i>
   <i name="EDIFF">      0.00001000</i>
   <i type="int" name="IALGO">    38</i>
   <i type="int" name="IWAVPR">    11</i>
   <i type="int" name="NBANDS">    40</i>
   <i name="NELECT">     60.00000000</i>
   <i type="int" name="TURBO">     0</i>
   <i type="int" name="IRESTART">     0</i>
   <i type="int" name="NREBOOT">     0</i>
   <i type="int" name="NMIN">     0</i>
   <i name="EREF">      0.00000000</i>
   <separator name="electronic smearing" >
    <i type="int" name="ISMEAR">     0</i>
    <i name="SIGMA">      0.01000000</i>
    <i name="KSPACING">      0.50000000</i>
    <i type="logical" name="KGAMMA"> T  </i>
   </separator>
   <separator name="electronic projectors" >
    <i type="logical" name="LREAL"> F  </i>
    <v name="ROPT">      0.00000000</v>
    <i type="int" name="LMAXPAW">  -100</i>
    <i type="int" name="LMAXMIX">     2</i>
    <i type="logical" name="NLSPLINE"> F  </i>
   </separator>
   <separator name="electronic startup" >
    <i type="int" name="ISTART">     0</i>
    <i type="int" name="ICHARG">     2</i>
    <i type="int" name="INIWAV">     1</i>
   </separator>
   <separator name="electronic spin" >
    <i type="int" name="ISPIN">     1</i>
    <i type="logical" name="LNONCOLLINEAR"> F  </i>
    <v name="MAGMOM">      1.00000000      1.00000000      1.00000000      1.00000000      1.00000000      1.00000000      1.00000000      1.00000000      1.00000000      1.00000000      1.00000000      1.00000000</v>
    <i name="NUPDOWN">     -1.00000000</i>
    <i type="logical" name="LSORBIT"> F  </i>
    <v name="SAXIS">      0.00000000      0.00000000      1.00000000</v>
    <i type="logical" name="LSPIRAL"> F  </i>
    <v name="QSPIRAL">      0.00000000      0.00000000      0.00000000</v>
    <i type="logical" name="LZEROZ"> F  </i>
   </separator>
   <separator name="electronic exchange-correlation" >
    <i type="logical" name="LASPH"> T  </i>
    <i type="logical" name="LMETAGGA"> F  </i>
   </separator>
   <separator name="electronic convergence" >
    <i type="int" name="NELM">   200</i>
    <i type="int" name="NELMDL">     0</i>
    <i type="int" name="NELMIN">     2</i>
    <i name="ENINI">    400.00000000</i>
    <separator name="electronic convergence detail" >
     <i type="logical" name="LDIAG"> T  </i>
     <i type="logical" name="LSUBROT"> F  </i>
     <i name="WEIMIN">      0.00000000</i>
     <i name="EBREAK">      0.00000006</i>
     <i name="DEPER">      0.30000000</i>
     <i type="int" name="NRMM">     4</i>
     <i name="TIME">      0.40000000</i>
    </separator>
   </separator>
   <separator name="electronic mixer" >
    <i name="AMIX">      0.40000000</i>
    <i name="BMIX">      1.00000000</i>
    <i name="AMIN">      0.10000000</i>
    <i name="AMIX_MAG">      1.60000000</i>
    <i name="BMIX_MAG">      1.00000000</i>
    <separator name="electronic mixer details" >
     <i type="int" name="IMIX">     4</i>
     <i type="logical" name="MIXFIRST"> F  </i>
     <i type="int" name="MAXMIX">   -45</i>
     <i name="WC">    100.00000000</i>
     <i type="int" name="INIMIX">     1</i>
     <i type="int" name="MIXPRE">     1</i>
     <i type="int" name="MREMOVE">     5</i>
    </separator>
   </separator>
   <separator name="electronic dipolcorrection" >
    <i type="logical" name="LDIPOL"> F  </i>
    <i type="logical" name="LMONO"> F  </i>
    <i type="int" name="IDIPOL">     0</i>
    <i name="EPSILON">      1.00000000</i>
    <v name="DIPOL">   -100.00000000   -100.00000000   -100.00000000</v>
    <i name="EFIELD">      0.00000000</i>
   </separator>
  </separator>
  <separator name="grids" >
   <i type="int" name="NGX">    16</i>
   <i type="int" name="NGY">   160</i>
   <i type="int" name="NGZ">    24</i>
   <i type="int" name="NGXF">    32</i>
   <i type="int" name="NGYF">   320</i>
   <i type="int" name="NGZF">    48</i>
   <i type="logical" name="ADDGRID"> F  </i>
  </separator>
  <separator name="ionic" >
   <i type="int" name="NSW">     0</i>
   <i type="int" name="IBRION">    -1</i>
   <i type="int" name="MDALGO">     0</i>
   <i type="int" name="ISIF">     3</i>
   <i name="PSTRESS">      0.00000000</i>
   <i name="EDIFFG">     -0.02000000</i>
   <i type="int" name="NFREE">     1</i>
   <i name="POTIM">      0.50000000</i>
   <i name="SMASS">     -3.00000000</i>
   <i name="SCALEE">      1.00000000</i>
  </separator>
  <separator name="ionic md" >
   <i name="TEBEG">      0.00010000</i>
   <i name="TEEND">      0.00010000</i>
   <i type="int" name="NBLOCK">     1</i>
   <i type="int" name="KBLOCK">     1</i>
   <i type="int" name="NPACO">   256</i>
   <i name="APACO">     16.00000000</i>
  </separator>
  <separator name="symmetry" >
   <i type="int" name="ISYM">     2</i>
   <i name="SYMPREC">      0.00001000</i>
  </separator>
  <separator name="dos" >
   <i type="int" name="LORBIT">    11</i>
   <v name="RWIGS">     -1.00000000</v>
   <i type="int" name="NEDOS">  2000</i>
   <i name="EMIN">     10.00000000</i>
   <i name="EMAX">    -10.00000000</i>
   <i name="EFERMI">      0.00000000</i>
  </separator>
  <separator name="writing" >
   <i type="int" name="NWRITE">     2</i>
   <i type="logical" name="LWAVE"> T  </i>
   <i type="logical" name="LDOWNSAMPLE"> F  </i>
   <i type="logical" name="LCHARG"> T  </i>
   <i type="logical" name="LPARD"> F  </i>
   <i type="logical" name="LVTOT"> F  </i>
   <i type="logical" name="LVHAR"> T  </i>
   <i type="logical" name="LELF"> F  </i>
   <i type="logical" name="LOPTICS"> F  </i>
   <v name="STM">      0.00000000      0.00000000      0.00000000      0.00000000      0.00000000      0.00000000      0.00000000</v>
  </separator>
  <separator name="performance" >
   <i type="int" name="NPAR">     4</i>
   <i type="int" name="NSIM">     4</i>
   <i type="int" name="NBLK">    -1</i>
   <i type="logical" name="LPLANE"> T  </i>
   <i type="logical" name="LSCALAPACK"> T  </i>
   <i type="logical" name="LSCAAWARE"> F  </i>
   <i type="logical" name="LSCALU"> F  </i>
   <i type="logical" name="LASYNC"> F  </i>
   <i type="logical" name="LORBITALREAL"> F  </i>
  </separator>
  <separator name="miscellaneous" >
   <i type="int" name="IDIOT">     3</i>
   <i type="int" name="ISPECIAL">     0</i>
   <i type="logical" name="LMUSIC"> F  </i>
   <v name="POMASS">     30.97400000</v>
   <v name="DARWINR">      0.00000000</v>
   <v name="DARWINV">      1.00000000</v>
   <i type="logical" name="LCORR"> T  </i>
  </separator>
  <i type="logical" name="GGA_COMPAT"> T  </i>
  <i type="logical" name="LBERRY"> F  </i>
  <i type="int" name="ICORELEVEL">     1</i>
  <i type="int" name="CLNT">     1</i>
  <i type="int" name="CLN">     1</i>
  <i type="int" name="CLL">     0</i>
  <i name="CLZ">      0.00000000</i>
  <i type="logical" name="LDAU"> F  </i>
  <i type="int" name="I_CONSTRAINED_M">     0</i>
  <separator name="electronic exchange-correlation" >
   <i type="string" name="GGA">PE</i>
   <i type="int" name="VOSKOWN">     0</i>
   <i type="logical" name="LHFCALC"> F  </i>
   <i type="string" name="PRECFOCK"></i>
   <i type="logical" name="LSYMGRAD"> F  </i>
   <i type="logical" name="LHFONE"> F  </i>
   <i type="logical" name="LRHFCALC"> F  </i>
   <i type="logical" name="LTHOMAS"> F  </i>
   <i type="logical" name="LMODELHF"> F  </i>
   <i name="ENCUT4O">     -1.00000000</i>
   <i type="int" name="EXXOEP">     0</i>
   <i type="int" name="FOURORBIT">     0</i>
   <i name="AEXX">      0.00000000</i>
   <i name="HFALPHA">      0.00000000</i>
   <i name="MCALPHA">      0.00000000</i>
   <i name="ALDAX">      1.00000000</i>
   <i name="AGGAX">      1.00000000</i>
   <i name="ALDAC">      1.00000000</i>
   <i name="AGGAC">      1.00000000</i>
   <i type="int" name="NKREDX">     1</i>
   <i type="int" name="NKREDY">     1</i>
   <i type="int" name="NKREDZ">     1</i>
   <i type="logical" name="SHIFTRED"> F  </i>
   <i type="logical" name="ODDONLY"> F  </i>
   <i type="logical" name="EVENONLY"> F  </i>
   <i type="int" name="LMAXFOCK">     0</i>
   <i type="int" name="NMAXFOCKAE">     0</i>
   <i type="logical" name="LFOCKAEDFT"> F  </i>
   <i name="HFSCREEN">      0.00000000</i>
   <i name="HFSCREENC">      0.00000000</i>
   <i type="int" name="NBANDSGWLOW">     0</i>
  </separator>
  <separator name="vdW DFT" >
   <i type="logical" name="LUSE_VDW"> F  </i>
   <i name="Zab_VDW">     -0.84910000</i>
   <i name="PARAM1">      0.12340000</i>
   <i name="PARAM2">      1.00000000</i>
   <i name="PARAM3">      0.00000000</i>
  </separator>
  <separator name="model GW" >
   <i type="int" name="MODEL_GW">     0</i>
   <i name="MODEL_EPS0">     23.83979645</i>
   <i name="MODEL_ALPHA">      1.00000000</i>
  </separator>
  <separator name="linear response parameters" >
   <i type="logical" name="LEPSILON"> F  </i>
   <i type="logical" name="LRPA"> F  </i>
   <i type="logical" name="LNABLA"> F  </i>
   <i type="logical" name="LVEL"> F  </i>
   <i type="int" name="KINTER">     0</i>
   <i name="CSHIFT">      0.10000000</i>
   <i name="OMEGAMAX">     -1.00000000</i>
   <i name="DEG_THRESHOLD">      0.00200000</i>
   <i name="RTIME">     -0.10000000</i>
   <i name="WPLASMAI">      0.00000000</i>
   <v name="DFIELD">      0.00000000      0.00000000      0.00000000</v>
   <v name="WPLASMA">      0.00000000      0.00000000      0.00000000      0.00000000      0.00000000      0.00000000      0.00000000      0.00000000      0.00000000</v>
  </separator>
  <separator name="orbital magnetization" >
   <i type="logical" name="NUCIND"> F  </i>
   <v name="MAGPOS">      0.00000000      0.00000000      0.00000000</v>
   <i type="logical" name="LNICSALL"> T  </i>
   <i type="logical" name="ORBITALMAG"> F  </i>
   <i type="logical" name="LMAGBLOCH"> F  </i>
   <i type="logical" name="LCHIMAG"> F  </i>
   <i type="logical" name="LGAUGE"> T  </i>
   <i type="int" name="MAGATOM">     0</i>
   <v name="MAGDIPOL">      0.00000000      0.00000000      0.00000000</v>
   <v name="AVECCONST">      0.00000000      0.00000000      0.00000000</v>
  </separator>
  <separator name="response functions" >
   <i type="logical" name="LADDER"> F  </i>
   <i type="logical" name="LRPAFORCE"> F  </i>
   <i type="logical" name="LFXC"> F  </i>
   <i type="logical" name="LHARTREE"> T  </i>
   <i type="int" name="IBSE">     0</i>
   <v type="int" name="KPOINT">    -1     0     0     0</v>
   <i type="logical" name="LTCTE"> F  </i>
   <i type="logical" name="LTETE"> F  </i>
   <i type="logical" name="LTRIPLET"> F  </i>
   <i type="logical" name="LFXCEPS"> F  </i>
   <i type="logical" name="LFXHEG"> F  </i>
   <i type="int" name="NATURALO">     2</i>
   <i type="logical" name="L2ORDER"> F  </i>
   <i type="logical" name="LMP2LT"> F  </i>
   <i type="logical" name="LUSEW"> F  </i>
   <i name="ENCUTGW">     -2.00000000</i>
   <i name="ENCUTGWSOFT">     -2.00000000</i>
   <i name="ENCUTLF">     -1.00000000</i>
   <i type="int" name="LMAXMP2">    -1</i>
   <i name="SCISSOR">      0.00000000</i>
   <i type="int" name="NOMEGA">     0</i>
   <i type="int" name="NOMEGAR">     0</i>
   <i type="int" name="NBANDSGW">    -1</i>
   <i type="int" name="NBANDSO">    -1</i>
   <i type="int" name="NBANDSV">    -1</i>
   <i type="int" name="NELM">   200</i>
   <i type="int" name="NELMHF">     1</i>
   <i type="int" name="DIM">     3</i>
   <i type="int" name="ANTIRES">     0</i>
   <i name="OMEGAMAX">    -30.00000000</i>
   <i name="OMEGAMIN">    -30.00000000</i>
   <i name="OMEGATL">   -200.00000000</i>
   <i type="int" name="OMEGAGRID">   140</i>
   <i name="CSHIFT">     -0.10000000</i>
   <i type="logical" name="SELFENERGY"> F  </i>
   <i type="logical" name="LSPECTRAL"> F  </i>
   <i type="logical" name="LSPECTRALGW"> F  </i>
   <i type="logical" name="LSINGLES"> F  </i>
   <i type="logical" name="LFERMIGW"> F  </i>
   <i type="logical" name="ODDONLYGW"> F  </i>
   <i type="logical" name="EVENONLYGW"> F  </i>
   <i type="int" name="NKREDLFX">     1</i>
   <i type="int" name="NKREDLFY">     1</i>
   <i type="int" name="NKREDLFZ">     1</i>
   <i type="int" name="MAXMEM">  2800</i>
   <i type="int" name="TELESCOPE">     0</i>
   <i type="int" name="TAUPAR">     1</i>
   <i type="int" name="OMEGAPAR">    -1</i>
   <i name="LAMBDA">      1.00000000</i>
  </separator>
  <separator name="External order field" >
   <i name="OFIELD_KAPPA">      0.00000000</i>
   <v name="OFIELD_K">      0.00000000      0.00000000      0.00000000</v>
   <i name="OFIELD_Q6_NEAR">      0.00000000</i>
   <i name="OFIELD_Q6_FAR">      0.00000000</i>
   <i name="OFIELD_A">      0.00000000</i>
  </separator>
 </parameters>
 <atominfo>
  <atoms>      12 </atoms>
  <types>       1 </types>
  <array name="atoms" >
   <dimension dim="1">ion</dimension>
   <field type="string">element</field>
   <field type="int">atomtype</field>
   <set>
    <rc><c>P </c><c>   1</c></rc>
    <rc><c>P </c><c>   1</c></rc>
    <rc><c>P </c><c>   1</c></rc>
    <rc><c>P </c><c>   1</c></rc>
    <rc><c>P </c><c>   1</c></rc>
    <rc><c>P </c><c>   1</c></rc>
    <rc><c>P </c><c>   1</c></rc>
    <rc><c>P </c><c>   1</c></rc>
    <rc><c>P </c><c>   1</c></rc>
    <rc><c>P </c><c>   1</c></rc>
    <rc><c>P </c><c>   1</c></rc>
    <rc><c>P </c><c>   1</c></rc>
   </set>
  </array>
  <array name="atomtypes" >
   <dimension dim="1">type</dimension>
   <field type="int">atomspertype</field>
   <field type="string">element</field>
   <field>mass</field>
   <field>valence</field>
   <field type="string">pseudopotential</field>
   <set>
    <rc><c>  12</c><c>P </c><c>     30.97400000</c><c>      5.00000000</c><c>  PAW_PBE P 06Sep2000                   </c></rc>
   </set>
  </array>
 </atominfo>
 <structure name="initialpos" >
  <crystal>
   <varray name="basis" >
    <v>       3.34288600       0.00000000       0.00000000 </v>
    <v>       0.00000000      32.60240900       0.00000000 </v>
    <v>       0.00000000       0.00000000       4.37483100 </v>
   </varray>
   <i name="volume">    476.79592902 </i>
   <varray name="rec_basis" >
    <v>       0.29914272       0.00000000       0.00000000 </v>
    <v>       0.00000000       0.03067258       0.00000000 </v>
    <v>       0.00000000       0.00000000       0.22858026 </v>
   </varray>
  </crystal>
  <varray name="positions" >
   <v>       0.00000000       0.30672600       0.91892400 </v>
   <v>       0.50000000       0.30672600       0.58107600 </v>
   <v>       0.00000000       0.37246700       0.08107600 </v>
   <v>       0.50000000       0.37246700       0.41892400 </v>
   <v>       0.50000000       0.46712900       0.91892400 </v>
   <v>       0.00000000       0.46712900       0.58107600 </v>
   <v>       0.50000000       0.53287100       0.08107600 </v>
   <v>       0.00000000       0.53287100       0.41892400 </v>
   <v>       0.00000000       0.62753300       0.91892400 </v>
   <v>       0.50000000       0.62753300       0.58107600 </v>
   <v>       0.00000000       0.69327400       0.08107600 </v>
   <v>       0.50000000       0.69327400       0.41892400 </v>
  </varray>
 </structure>
 <calculation>
  <scstep>
   <time name="dav">    0.70    0.70</time>
   <time name="total">    0.79    0.81</time>
   <energy>
    <i name="alphaZ">     30.28014394 </i>
    <i name="ewald">  14973.24208224 </i>
    <i name="hartreedc"> -16928.93300519 </i>
    <i name="XCdc">     40.33410248 </i>
    <i name="pawpsdc">   1677.12035881 </i>
    <i name="pawaedc">  -1579.18296132 </i>
    <i name="eentropy">     -0.00070410 </i>
    <i name="bandstr">     11.30424646 </i>
    <i name="atom">   2112.48864025 </i>
    <i name="e_fr_energy">    336.65290357 </i>
    <i name="e_wo_entrp">    336.65360767 </i>
    <i name="e_0_energy">    336.65325562 </i>
   </energy>
  </scstep>
  <scstep>
   <time name="dav">    0.86    0.86</time>
   <time name="total">    0.86    0.86</time>
   <energy>
    <i name="e_fr_energy">    -25.99401593 </i>
    <i name="e_wo_entrp">    -25.99348513 </i>
    <i name="e_0_energy">    -25.99375053 </i>
   </energy>
  </scstep>
  <scstep>
   <time name="dav">    0.80    0.80</time>
   <time name="total">    0.80    0.80</time>
   <energy>
    <i name="e_fr_energy">    -63.38711998 </i>
    <i name="e_wo_entrp">    -63.38711998 </i>
    <i name="e_0_energy">    -63.38711998 </i>
   </energy>
  </scstep>
  <scstep>
   <time name="dav">    0.92    0.92</time>
   <time name="total">    0.92    0.92</time>
   <energy>
    <i name="e_fr_energy">    -64.79697704 </i>
    <i name="e_wo_entrp">    -64.79697704 </i>
    <i name="e_0_energy">    -64.79697704 </i>
   </energy>
  </scstep>
  <scstep>
   <time name="dav">    0.88    0.88</time>
   <time name="total">    0.92    0.92</time>
   <energy>
    <i name="e_fr_energy">    -64.83600156 </i>
    <i name="e_wo_entrp">    -64.83600156 </i>
    <i name="e_0_energy">    -64.83600156 </i>
   </energy>
  </scstep>
  <scstep>
   <time name="dav">    0.84    0.84</time>
   <time name="total">    0.95    0.95</time>
   <energy>
    <i name="e_fr_energy">    -64.51357546 </i>
    <i name="e_wo_entrp">    -64.51357546 </i>
    <i name="e_0_energy">    -64.51357546 </i>
   </energy>
  </scstep>
  <scstep>
   <time name="dav">    0.91    0.91</time>
   <time name="total">    1.02    1.02</time>
   <energy>
    <i name="e_fr_energy">    -64.36624523 </i>
    <i name="e_wo_entrp">    -64.36624514 </i>
    <i name="e_0_energy">    -64.36624519 </i>
   </energy>
  </scstep>
  <scstep>
   <time name="dav">    0.83    0.83</time>
   <time name="total">    0.94    0.94</time>
   <energy>
    <i name="e_fr_energy">    -64.36603976 </i>
    <i name="e_wo_entrp">    -64.36603974 </i>
    <i name="e_0_energy">    -64.36603975 </i>
   </energy>
  </scstep>
  <scstep>
   <time name="dav">    0.88    0.88</time>
   <time name="total">    0.99    1.00</time>
   <energy>
    <i name="e_fr_energy">    -64.36602019 </i>
    <i name="e_wo_entrp">    -64.36602017 </i>
    <i name="e_0_energy">    -64.36602018 </i>
   </energy>
  </scstep>
  <scstep>
   <time name="dav">    0.78    0.78</time>
   <time name="total">    0.90    0.90</time>
   <energy>
    <i name="e_fr_energy">    -64.36580669 </i>
    <i name="e_wo_entrp">    -64.36580668 </i>
    <i name="e_0_energy">    -64.36580668 </i>
   </energy>
  </scstep>
  <scstep>
   <time name="dav">    0.79    0.79</time>
   <time name="total">    0.90    0.90</time>
   <energy>
    <i name="e_fr_energy">    -64.36556264 </i>
    <i name="e_wo_entrp">    -64.36556263 </i>
    <i name="e_0_energy">    -64.36556263 </i>
   </energy>
  </scstep>
  <scstep>
   <time name="dav">    0.78    0.78</time>
   <time name="total">    0.90    0.90</time>
   <energy>
    <i name="e_fr_energy">    -64.36563857 </i>
    <i name="e_wo_entrp">    -64.36563855 </i>
    <i name="e_0_energy">    -64.36563856 </i>
   </energy>
  </scstep>
  <scstep>
   <time name="dav">    0.75    0.75</time>
   <time name="total">    0.86    0.87</time>
   <energy>
    <i name="e_fr_energy">    -64.36584969 </i>
    <i name="e_wo_entrp">    -64.36584967 </i>
    <i name="e_0_energy">    -64.36584968 </i>
   </energy>
  </scstep>
  <scstep>
   <time name="dav">    0.67    0.67</time>
   <time name="total">    0.78    0.79</time>
   <energy>
    <i name="e_fr_energy">    -64.36599055 </i>
    <i name="e_wo_entrp">    -64.36599053 </i>
    <i name="e_0_energy">    -64.36599054 </i>
   </energy>
  </scstep>
  <scstep>
   <time name="dav">    0.58    0.59</time>
   <time name="total">    0.70    0.70</time>
   <energy>
    <i name="e_fr_energy">    -64.36601230 </i>
    <i name="e_wo_entrp">    -64.36601228 </i>
    <i name="e_0_energy">    -64.36601229 </i>
   </energy>
  </scstep>
  <scstep>
   <time name="dav">    0.67    0.67</time>
   <time name="total">    0.79    0.79</time>
   <energy>
    <i name="e_fr_energy">    -64.36624791 </i>
    <i name="e_wo_entrp">    -64.36624789 </i>
    <i name="e_0_energy">    -64.36624790 </i>
   </energy>
  </scstep>
  <scstep>
   <time name="dav">    0.64    0.64</time>
   <time name="total">    0.76    0.76</time>
   <energy>
    <i name="e_fr_energy">    -64.36629478 </i>
    <i name="e_wo_entrp">    -64.36629475 </i>
    <i name="e_0_energy">    -64.36629477 </i>
   </energy>
  </scstep>
  <scstep>
   <time name="dav">    0.58    0.58</time>
   <time name="total">    0.74    0.75</time>
   <energy>
    <i name="alphaZ">     30.28014394 </i>
    <i name="ewald">  14973.24208224 </i>
    <i name="hartreedc"> -16967.87133102 </i>
    <i name="XCdc">     43.12777199 </i>
    <i name="pawpsdc">   6276.57937905 </i>
    <i name="pawaedc">  -6179.55771794 </i>
    <i name="eentropy">     -0.00000003 </i>
    <i name="bandstr">   -352.65526512 </i>
    <i name="atom">   2112.48864025 </i>
    <i name="e_fr_energy">    -64.36629665 </i>
    <i name="e_wo_entrp">    -64.36629662 </i>
    <i name="e_0_energy">    -64.36629663 </i>
   </energy>
  </scstep>
  <structure>
   <crystal>
    <varray name="basis" >
     <v>       3.34288600       0.00000000       0.00000000 </v>
     <v>       0.00000000      32.60240900       0.00000000 </v>
     <v>       0.00000000       0.00000000       4.37483100 </v>
    </varray>
    <i name="volume">    476.79592902 </i>
    <varray name="rec_basis" >
     <v>       0.29914272       0.00000000       0.00000000 </v>
     <v>       0.00000000       0.03067258       0.00000000 </v>
     <v>       0.00000000       0.00000000       0.22858026 </v>
    </varray>
   </crystal>
   <varray name="positions" >
    <v>       0.00000000       0.30672600       0.91892400 </v>
    <v>       0.50000000       0.30672600       0.58107600 </v>
    <v>       0.00000000       0.37246700       0.08107600 </v>
    <v>       0.50000000       0.37246700       0.41892400 </v>
    <v>       0.50000000       0.46712900       0.91892400 </v>
    <v>       0.00000000       0.46712900       0.58107600 </v>
    <v>       0.50000000       0.53287100       0.08107600 </v>
    <v>       0.00000000       0.53287100       0.41892400 </v>
    <v>       0.00000000       0.62753300       0.91892400 </v>
    <v>       0.50000000       0.62753300       0.58107600 </v>
    <v>       0.00000000       0.69327400       0.08107600 </v>
    <v>       0.50000000       0.69327400       0.41892400 </v>
   </varray>
  </structure>
  <varray name="forces" >
   <v>      -0.00000000       0.05922911      -0.05891219 </v>
   <v>       0.00000000       0.05922911       0.05891219 </v>
   <v>      -0.00000000      -0.05713083      -0.00105429 </v>
   <v>      -0.00000000      -0.05713083       0.00105429 </v>
   <v>      -0.00000000       0.02014530      -0.01450900 </v>
   <v>      -0.00000000       0.02014530       0.01450900 </v>
   <v>      -0.00000000      -0.02014530       0.01450900 </v>
   <v>      -0.00000000      -0.02014530      -0.01450900 </v>
   <v>      -0.00000000       0.05713083       0.00105429 </v>
   <v>      -0.00000000       0.05713083      -0.00105429 </v>
   <v>      -0.00000000      -0.05922911       0.05891219 </v>
   <v>      -0.00000000      -0.05922911      -0.05891219 </v>
  </varray>
  <varray name="stress" >
   <v>      -1.28244262       0.00000000       0.00000000 </v>
   <v>       0.00000000      -2.12187930      -0.00000000 </v>
   <v>       0.00000000      -0.00000000       4.15348864 </v>
  </varray>
  <energy>
   <i name="e_fr_energy">    -66.54023617 </i>
   <i name="e_wo_entrp">    -66.54023616 </i>
   <i name="e_0_energy">     -0.00000003 </i>
  </energy>
  <time name="totalsc">   17.24   17.31</time>
  <eigenvalues>
   <array>
    <dimension dim="1">band</dimension>
    <dimension dim="2">kpoint</dimension>
    <dimension dim="3">spin</dimension>
    <field>eigene</field>
    <field>occ</field>
    <set>
     <set comment="spin 1">
      <set comment="kpoint 1">
       <r>  -14.8593    1.0000 </r>
       <r>  -14.7386    1.0000 </r>
       <r>  -14.6701    1.0000 </r>
       <r>  -12.3784    1.0000 </r>
       <r>  -12.1320    1.0000 </r>
       <r>  -11.9525    1.0000 </r>
       <r>   -8.6117    1.0000 </r>
       <r>   -8.5273    1.0000 </r>
       <r>   -8.4971    1.0000 </r>
       <r>   -5.9294    1.0000 </r>
       <r>   -5.5499    1.0000 </r>
       <r>   -5.1316    1.0000 </r>
       <r>   -4.5109    1.0000 </r>
       <r>   -4.5092    1.0000 </r>
       <r>   -4.1929    1.0000 </r>
       <r>   -4.1472    1.0000 </r>
       <r>   -3.9999    1.0000 </r>
       <r>   -3.9273    1.0000 </r>
       <r>   -3.3985    1.0000 </r>
       <r>   -3.2973    1.0000 </r>
       <r>   -3.2476    1.0000 </r>
       <r>   -1.8844    1.0000 </r>
       <r>   -1.7414    1.0000 </r>
       <r>   -1.6292    1.0000 </r>
       <r>   -1.5938    1.0000 </r>
       <r>   -1.5090    1.0000 </r>
       <r>   -1.1127    1.0000 </r>
       <r>   -0.2554    1.0000 </r>
       <r>    0.3489    1.0000 </r>
       <r>    0.9038    1.0000 </r>
       <r>    0.9647    0.0000 </r>
       <r>    1.4925    0.0000 </r>
       <r>    1.5184    0.0000 </r>
       <r>    1.6919    0.0000 </r>
       <r>    1.7011    0.0000 </r>
       <r>    1.8568    0.0000 </r>
       <r>    2.7258    0.0000 </r>
       <r>    2.8968    0.0000 </r>
       <r>    2.9673    0.0000 </r>
       <r>    3.7026    0.0000 </r>
      </set>
      <set comment="kpoint 2">
       <r>  -14.6214    1.0000 </r>
       <r>  -14.5015    1.0000 </r>
       <r>  -14.4339    1.0000 </r>
       <r>  -12.1309    1.0000 </r>
       <r>  -11.8855    1.0000 </r>
       <r>  -11.7068    1.0000 </r>
       <r>   -8.8128    1.0000 </r>
       <r>   -8.7461    1.0000 </r>
       <r>   -8.7347    1.0000 </r>
       <r>   -5.7277    1.0000 </r>
       <r>   -5.3535    1.0000 </r>
       <r>   -4.9518    1.0000 </r>
       <r>   -4.8051    1.0000 </r>
       <r>   -4.6837    1.0000 </r>
       <r>   -4.6115    1.0000 </r>
       <r>   -4.2982    1.0000 </r>
       <r>   -4.2532    1.0000 </r>
       <r>   -4.1646    1.0000 </r>
       <r>   -4.1617    1.0000 </r>
       <r>   -3.9487    1.0000 </r>
       <r>   -3.8036    1.0000 </r>
       <r>   -2.5111    1.0000 </r>
       <r>   -2.4136    1.0000 </r>
       <r>   -2.3000    1.0000 </r>
       <r>   -1.7764    1.0000 </r>
       <r>   -1.5090    1.0000 </r>
       <r>   -1.0014    1.0000 </r>
       <r>   -0.2031    1.0000 </r>
       <r>    0.2484    1.0000 </r>
       <r>    0.5791    1.0000 </r>
       <r>    1.1758    0.0000 </r>
       <r>    1.6369    0.0000 </r>
       <r>    1.8526    0.0000 </r>
       <r>    2.5611    0.0000 </r>
       <r>    2.7523    0.0000 </r>
       <r>    2.8139    0.0000 </r>
       <r>    3.2504    0.0000 </r>
       <r>    3.3904    0.0000 </r>
       <r>    3.5056    0.0000 </r>
       <r>    4.1446    0.0000 </r>
      </set>
      <set comment="kpoint 3">
       <r>  -13.9166    1.0000 </r>
       <r>  -13.7996    1.0000 </r>
       <r>  -13.7350    1.0000 </r>
       <r>  -11.3929    1.0000 </r>
       <r>  -11.1508    1.0000 </r>
       <r>  -10.9747    1.0000 </r>
       <r>   -9.7579    1.0000 </r>
       <r>   -9.6902    1.0000 </r>
       <r>   -9.6779    1.0000 </r>
       <r>   -6.5398    1.0000 </r>
       <r>   -6.3658    1.0000 </r>
       <r>   -6.2486    1.0000 </r>
       <r>   -5.1687    1.0000 </r>
       <r>   -4.9315    1.0000 </r>
       <r>   -4.8801    1.0000 </r>
       <r>   -4.8664    1.0000 </r>
       <r>   -4.8209    1.0000 </r>
       <r>   -4.4865    1.0000 </r>
       <r>   -3.6973    1.0000 </r>
       <r>   -3.3966    1.0000 </r>
       <r>   -3.2637    1.0000 </r>
       <r>   -2.8086    1.0000 </r>
       <r>   -2.5134    1.0000 </r>
       <r>   -2.2541    1.0000 </r>
       <r>   -1.7035    1.0000 </r>
       <r>   -1.4231    1.0000 </r>
       <r>   -1.0187    1.0000 </r>
       <r>   -0.5249    1.0000 </r>
       <r>   -0.4276    1.0000 </r>
       <r>   -0.4198    1.0000 </r>
       <r>    1.1481    0.0000 </r>
       <r>    1.2456    0.0000 </r>
       <r>    1.5367    0.0000 </r>
       <r>    1.8475    0.0000 </r>
       <r>    2.4555    0.0000 </r>
       <r>    2.6651    0.0000 </r>
       <r>    2.8151    0.0000 </r>
       <r>    3.1365    0.0000 </r>
       <r>    3.1790    0.0000 </r>
       <r>    3.2152    0.0000 </r>
      </set>
      <set comment="kpoint 4">
       <r>  -12.7790    1.0000 </r>
       <r>  -12.6682    1.0000 </r>
       <r>  -12.6102    1.0000 </r>
       <r>  -11.3010    1.0000 </r>
       <r>  -11.2037    1.0000 </r>
       <r>  -11.1600    1.0000 </r>
       <r>  -10.1797    1.0000 </r>
       <r>   -9.9445    1.0000 </r>
       <r>   -9.7739    1.0000 </r>
       <r>   -8.5277    1.0000 </r>
       <r>   -8.3075    1.0000 </r>
       <r>   -8.1493    1.0000 </r>
       <r>   -4.6462    1.0000 </r>
       <r>   -4.5680    1.0000 </r>
       <r>   -4.5677    1.0000 </r>
       <r>   -4.5378    1.0000 </r>
       <r>   -4.3034    1.0000 </r>
       <r>   -4.1551    1.0000 </r>
       <r>   -2.8589    1.0000 </r>
       <r>   -2.6918    1.0000 </r>
       <r>   -2.6113    1.0000 </r>
       <r>   -2.4457    1.0000 </r>
       <r>   -2.2520    1.0000 </r>
       <r>   -2.1650    1.0000 </r>
       <r>   -2.0484    1.0000 </r>
       <r>   -1.7859    1.0000 </r>
       <r>   -1.6858    1.0000 </r>
       <r>   -1.5318    1.0000 </r>
       <r>   -1.4323    1.0000 </r>
       <r>   -1.2060    1.0000 </r>
       <r>    1.4684    0.0000 </r>
       <r>    1.4860    0.0000 </r>
       <r>    1.6433    0.0000 </r>
       <r>    1.7447    0.0000 </r>
       <r>    1.8328    0.0000 </r>
       <r>    1.8429    0.0000 </r>
       <r>    1.8608    0.0000 </r>
       <r>    2.0497    0.0000 </r>
       <r>    2.1306    0.0000 </r>
       <r>    2.7735    0.0000 </r>
      </set>
      <set comment="kpoint 5">
       <r>  -14.7015    1.0000 </r>
       <r>  -14.5838    1.0000 </r>
       <r>  -14.5184    1.0000 </r>
       <r>  -12.4621    1.0000 </r>
       <r>  -12.2700    1.0000 </r>
       <r>  -12.1513    1.0000 </r>
       <r>   -8.8389    1.0000 </r>
       <r>   -8.7565    1.0000 </r>
       <r>   -8.7150    1.0000 </r>
       <r>   -6.2324    1.0000 </r>
       <r>   -6.0878    1.0000 </r>
       <r>   -6.0621    1.0000 </r>
       <r>   -4.5156    1.0000 </r>
       <r>   -4.3326    1.0000 </r>
       <r>   -3.8376    1.0000 </r>
       <r>   -3.7058    1.0000 </r>
       <r>   -3.3158    1.0000 </r>
       <r>   -3.3143    1.0000 </r>
       <r>   -3.2729    1.0000 </r>
       <r>   -3.1752    1.0000 </r>
       <r>   -3.1293    1.0000 </r>
       <r>   -1.7918    1.0000 </r>
       <r>   -1.6663    1.0000 </r>
       <r>   -1.6038    1.0000 </r>
       <r>   -1.1259    1.0000 </r>
       <r>   -0.9392    1.0000 </r>
       <r>   -0.8252    1.0000 </r>
       <r>   -0.6122    1.0000 </r>
       <r>   -0.3986    1.0000 </r>
       <r>    0.0679    1.0000 </r>
       <r>    1.5055    0.0000 </r>
       <r>    1.8516    0.0000 </r>
       <r>    1.8864    0.0000 </r>
       <r>    1.9413    0.0000 </r>
       <r>    2.1905    0.0000 </r>
       <r>    2.4864    0.0000 </r>
       <r>    2.5738    0.0000 </r>
       <r>    2.6058    0.0000 </r>
       <r>    2.6374    0.0000 </r>
       <r>    3.4848    0.0000 </r>
      </set>
      <set comment="kpoint 6">
       <r>  -14.4650    1.0000 </r>
       <r>  -14.3482    1.0000 </r>
       <r>  -14.2838    1.0000 </r>
       <r>  -12.2218    1.0000 </r>
       <r>  -12.0324    1.0000 </r>
       <r>  -11.9166    1.0000 </r>
       <r>   -8.9388    1.0000 </r>
       <r>   -8.8533    1.0000 </r>
       <r>   -8.8107    1.0000 </r>
       <r>   -6.1631    1.0000 </r>
       <r>   -6.0085    1.0000 </r>
       <r>   -5.9951    1.0000 </r>
       <r>   -4.7747    1.0000 </r>
       <r>   -4.7065    1.0000 </r>
       <r>   -4.5173    1.0000 </r>
       <r>   -4.4871    1.0000 </r>
       <r>   -4.2403    1.0000 </r>
       <r>   -3.8436    1.0000 </r>
       <r>   -3.1452    1.0000 </r>
       <r>   -3.0053    1.0000 </r>
       <r>   -2.8971    1.0000 </r>
       <r>   -2.8141    1.0000 </r>
       <r>   -2.7019    1.0000 </r>
       <r>   -2.6435    1.0000 </r>
       <r>   -1.0036    1.0000 </r>
       <r>   -0.9900    1.0000 </r>
       <r>   -0.8783    1.0000 </r>
       <r>   -0.6456    1.0000 </r>
       <r>   -0.3861    1.0000 </r>
       <r>    0.0122    1.0000 </r>
       <r>    1.6570    0.0000 </r>
       <r>    2.0200    0.0000 </r>
       <r>    2.3450    0.0000 </r>
       <r>    2.6272    0.0000 </r>
       <r>    2.7589    0.0000 </r>
       <r>    2.9219    0.0000 </r>
       <r>    3.3962    0.0000 </r>
       <r>    3.4785    0.0000 </r>
       <r>    3.4801    0.0000 </r>
       <r>    4.1806    0.0000 </r>
      </set>
      <set comment="kpoint 7">
       <r>  -13.7663    1.0000 </r>
       <r>  -13.6525    1.0000 </r>
       <r>  -13.5913    1.0000 </r>
       <r>  -11.5274    1.0000 </r>
       <r>  -11.3537    1.0000 </r>
       <r>  -11.2548    1.0000 </r>
       <r>   -9.6252    1.0000 </r>
       <r>   -9.5133    1.0000 </r>
       <r>   -9.4472    1.0000 </r>
       <r>   -6.7600    1.0000 </r>
       <r>   -6.6609    1.0000 </r>
       <r>   -6.6236    1.0000 </r>
       <r>   -5.5571    1.0000 </r>
       <r>   -5.4362    1.0000 </r>
       <r>   -5.3360    1.0000 </r>
       <r>   -4.9541    1.0000 </r>
       <r>   -4.6659    1.0000 </r>
       <r>   -4.5592    1.0000 </r>
       <r>   -3.1155    1.0000 </r>
       <r>   -3.1062    1.0000 </r>
       <r>   -2.9262    1.0000 </r>
       <r>   -2.7166    1.0000 </r>
       <r>   -2.5458    1.0000 </r>
       <r>   -2.5441    1.0000 </r>
       <r>   -1.7817    1.0000 </r>
       <r>   -1.5569    1.0000 </r>
       <r>   -1.1733    1.0000 </r>
       <r>   -0.8506    1.0000 </r>
       <r>   -0.5552    1.0000 </r>
       <r>   -0.4955    1.0000 </r>
       <r>    1.7574    0.0000 </r>
       <r>    1.7877    0.0000 </r>
       <r>    2.0430    0.0000 </r>
       <r>    2.2721    0.0000 </r>
       <r>    2.3610    0.0000 </r>
       <r>    2.5782    0.0000 </r>
       <r>    2.7465    0.0000 </r>
       <r>    2.8464    0.0000 </r>
       <r>    3.0918    0.0000 </r>
       <r>    3.7047    0.0000 </r>
      </set>
      <set comment="kpoint 8">
       <r>  -12.6487    1.0000 </r>
       <r>  -12.5419    1.0000 </r>
       <r>  -12.4881    1.0000 </r>
       <r>  -11.2982    1.0000 </r>
       <r>  -11.2088    1.0000 </r>
       <r>  -11.1747    1.0000 </r>
       <r>  -10.0955    1.0000 </r>
       <r>   -9.8868    1.0000 </r>
       <r>   -9.7435    1.0000 </r>
       <r>   -8.5768    1.0000 </r>
       <r>   -8.3963    1.0000 </r>
       <r>   -8.2811    1.0000 </r>
       <r>   -5.1698    1.0000 </r>
       <r>   -5.0478    1.0000 </r>
       <r>   -4.9520    1.0000 </r>
       <r>   -4.5849    1.0000 </r>
       <r>   -4.3871    1.0000 </r>
       <r>   -4.2913    1.0000 </r>
       <r>   -3.3307    1.0000 </r>
       <r>   -3.1420    1.0000 </r>
       <r>   -3.0459    1.0000 </r>
       <r>   -2.8243    1.0000 </r>
       <r>   -2.7536    1.0000 </r>
       <r>   -2.7187    1.0000 </r>
       <r>   -1.9857    1.0000 </r>
       <r>   -1.6918    1.0000 </r>
       <r>   -1.2687    1.0000 </r>
       <r>   -1.2256    1.0000 </r>
       <r>   -0.9800    1.0000 </r>
       <r>   -0.8731    1.0000 </r>
       <r>    1.4453    0.0000 </r>
       <r>    1.5755    0.0000 </r>
       <r>    1.6283    0.0000 </r>
       <r>    1.9875    0.0000 </r>
       <r>    2.1719    0.0000 </r>
       <r>    2.1749    0.0000 </r>
       <r>    2.7723    0.0000 </r>
       <r>    2.8514    0.0000 </r>
       <r>    3.0194    0.0000 </r>
       <r>    3.0825    0.0000 </r>
      </set>
      <set comment="kpoint 9">
       <r>  -14.2444    1.0000 </r>
       <r>  -14.1378    1.0000 </r>
       <r>  -14.0845    1.0000 </r>
       <r>  -12.8326    1.0000 </r>
       <r>  -12.7528    1.0000 </r>
       <r>  -12.7424    1.0000 </r>
       <r>   -9.0401    1.0000 </r>
       <r>   -8.8102    1.0000 </r>
       <r>   -8.6153    1.0000 </r>
       <r>   -7.5595    1.0000 </r>
       <r>   -7.2443    1.0000 </r>
       <r>   -6.9939    1.0000 </r>
       <r>   -4.3663    1.0000 </r>
       <r>   -3.6968    1.0000 </r>
       <r>   -2.9307    1.0000 </r>
       <r>   -2.9203    1.0000 </r>
       <r>   -2.8349    1.0000 </r>
       <r>   -2.8023    1.0000 </r>
       <r>   -2.5479    1.0000 </r>
       <r>   -2.3312    1.0000 </r>
       <r>   -2.1222    1.0000 </r>
       <r>   -1.9989    1.0000 </r>
       <r>   -1.9242    1.0000 </r>
       <r>   -1.9110    1.0000 </r>
       <r>   -1.8274    1.0000 </r>
       <r>   -1.5795    1.0000 </r>
       <r>   -0.9357    1.0000 </r>
       <r>    0.1458    1.0000 </r>
       <r>    0.1746    1.0000 </r>
       <r>    0.2123    1.0000 </r>
       <r>    1.8782    0.0000 </r>
       <r>    1.9213    0.0000 </r>
       <r>    2.0171    0.0000 </r>
       <r>    2.0450    0.0000 </r>
       <r>    2.2090    0.0000 </r>
       <r>    2.2769    0.0000 </r>
       <r>    2.8401    0.0000 </r>
       <r>    3.1939    0.0000 </r>
       <r>    3.2382    0.0000 </r>
       <r>    3.3071    0.0000 </r>
      </set>
      <set comment="kpoint 10">
       <r>  -14.0124    1.0000 </r>
       <r>  -13.9066    1.0000 </r>
       <r>  -13.8542    1.0000 </r>
       <r>  -12.6062    1.0000 </r>
       <r>  -12.5282    1.0000 </r>
       <r>  -12.5191    1.0000 </r>
       <r>   -8.9873    1.0000 </r>
       <r>   -8.7661    1.0000 </r>
       <r>   -8.5846    1.0000 </r>
       <r>   -7.4456    1.0000 </r>
       <r>   -7.1563    1.0000 </r>
       <r>   -6.9317    1.0000 </r>
       <r>   -4.5728    1.0000 </r>
       <r>   -4.4766    1.0000 </r>
       <r>   -4.3283    1.0000 </r>
       <r>   -4.1843    1.0000 </r>
       <r>   -3.6454    1.0000 </r>
       <r>   -3.4758    1.0000 </r>
       <r>   -3.3244    1.0000 </r>
       <r>   -3.2263    1.0000 </r>
       <r>   -2.7397    1.0000 </r>
       <r>   -2.3317    1.0000 </r>
       <r>   -1.8000    1.0000 </r>
       <r>   -1.7455    1.0000 </r>
       <r>   -1.3889    1.0000 </r>
       <r>   -1.2437    1.0000 </r>
       <r>   -0.8114    1.0000 </r>
       <r>   -0.5822    1.0000 </r>
       <r>   -0.4381    1.0000 </r>
       <r>   -0.2403    1.0000 </r>
       <r>    2.4035    0.0000 </r>
       <r>    2.7320    0.0000 </r>
       <r>    2.7825    0.0000 </r>
       <r>    3.1228    0.0000 </r>
       <r>    3.2015    0.0000 </r>
       <r>    3.2899    0.0000 </r>
       <r>    3.3181    0.0000 </r>
       <r>    3.5047    0.0000 </r>
       <r>    3.7011    0.0000 </r>
       <r>    3.7756    0.0000 </r>
      </set>
      <set comment="kpoint 11">
       <r>  -13.3327    1.0000 </r>
       <r>  -13.2300    1.0000 </r>
       <r>  -13.1809    1.0000 </r>
       <r>  -11.9705    1.0000 </r>
       <r>  -11.8995    1.0000 </r>
       <r>  -11.8952    1.0000 </r>
       <r>   -9.1980    1.0000 </r>
       <r>   -9.0145    1.0000 </r>
       <r>   -8.8843    1.0000 </r>
       <r>   -7.5246    1.0000 </r>
       <r>   -7.3899    1.0000 </r>
       <r>   -7.3274    1.0000 </r>
       <r>   -5.8995    1.0000 </r>
       <r>   -5.7074    1.0000 </r>
       <r>   -5.5606    1.0000 </r>
       <r>   -5.0509    1.0000 </r>
       <r>   -4.8969    1.0000 </r>
       <r>   -4.8368    1.0000 </r>
       <r>   -3.6428    1.0000 </r>
       <r>   -3.2361    1.0000 </r>
       <r>   -2.8724    1.0000 </r>
       <r>   -2.4643    1.0000 </r>
       <r>   -2.1810    1.0000 </r>
       <r>   -2.0533    1.0000 </r>
       <r>   -2.0046    1.0000 </r>
       <r>   -1.6537    1.0000 </r>
       <r>   -1.2942    1.0000 </r>
       <r>   -1.1994    1.0000 </r>
       <r>   -0.8246    1.0000 </r>
       <r>   -0.5521    1.0000 </r>
       <r>    1.9695    0.0000 </r>
       <r>    2.2263    0.0000 </r>
       <r>    2.3873    0.0000 </r>
       <r>    2.9035    0.0000 </r>
       <r>    2.9510    0.0000 </r>
       <r>    3.4910    0.0000 </r>
       <r>    3.6230    0.0000 </r>
       <r>    3.8912    0.0000 </r>
       <r>    3.8922    0.0000 </r>
       <r>    4.0572    0.0000 </r>
      </set>
      <set comment="kpoint 12">
       <r>  -12.2864    1.0000 </r>
       <r>  -12.1931    1.0000 </r>
       <r>  -12.1539    1.0000 </r>
       <r>  -11.4091    1.0000 </r>
       <r>  -11.3457    1.0000 </r>
       <r>  -11.3400    1.0000 </r>
       <r>   -9.8069    1.0000 </r>
       <r>   -9.6571    1.0000 </r>
       <r>   -9.5717    1.0000 </r>
       <r>   -8.8004    1.0000 </r>
       <r>   -8.7120    1.0000 </r>
       <r>   -8.6901    1.0000 </r>
       <r>   -5.6577    1.0000 </r>
       <r>   -5.4350    1.0000 </r>
       <r>   -5.2398    1.0000 </r>
       <r>   -4.7834    1.0000 </r>
       <r>   -4.6706    1.0000 </r>
       <r>   -4.5874    1.0000 </r>
       <r>   -4.1319    1.0000 </r>
       <r>   -4.0785    1.0000 </r>
       <r>   -4.0127    1.0000 </r>
       <r>   -3.5716    1.0000 </r>
       <r>   -3.2962    1.0000 </r>
       <r>   -3.1036    1.0000 </r>
       <r>   -1.9908    1.0000 </r>
       <r>   -1.4981    1.0000 </r>
       <r>   -1.0508    1.0000 </r>
       <r>   -1.0116    1.0000 </r>
       <r>   -0.9575    1.0000 </r>
       <r>   -0.8578    1.0000 </r>
       <r>    2.0532    0.0000 </r>
       <r>    2.4291    0.0000 </r>
       <r>    2.7609    0.0000 </r>
       <r>    2.9767    0.0000 </r>
       <r>    3.1279    0.0000 </r>
       <r>    3.1778    0.0000 </r>
       <r>    3.3073    0.0000 </r>
       <r>    3.3184    0.0000 </r>
       <r>    3.4507    0.0000 </r>
       <r>    3.9491    0.0000 </r>
      </set>
      <set comment="kpoint 13">
       <r>  -13.5516    1.0000 </r>
       <r>  -13.5516    1.0000 </r>
       <r>  -13.4815    1.0000 </r>
       <r>  -13.4815    1.0000 </r>
       <r>  -13.4349    1.0000 </r>
       <r>  -13.4349    1.0000 </r>
       <r>   -8.5761    1.0000 </r>
       <r>   -8.5761    1.0000 </r>
       <r>   -8.2591    1.0000 </r>
       <r>   -8.2591    1.0000 </r>
       <r>   -7.9857    1.0000 </r>
       <r>   -7.9857    1.0000 </r>
       <r>   -3.5965    1.0000 </r>
       <r>   -3.5965    1.0000 </r>
       <r>   -2.8331    1.0000 </r>
       <r>   -2.8331    1.0000 </r>
       <r>   -2.4276    1.0000 </r>
       <r>   -2.4276    1.0000 </r>
       <r>   -2.3833    1.0000 </r>
       <r>   -2.3833    1.0000 </r>
       <r>   -2.3375    1.0000 </r>
       <r>   -2.3375    1.0000 </r>
       <r>   -2.0283    1.0000 </r>
       <r>   -2.0283    1.0000 </r>
       <r>   -0.7323    1.0000 </r>
       <r>   -0.7323    1.0000 </r>
       <r>   -0.5243    1.0000 </r>
       <r>   -0.5243    1.0000 </r>
       <r>   -0.4519    1.0000 </r>
       <r>   -0.4519    1.0000 </r>
       <r>    2.1852    0.0000 </r>
       <r>    2.1852    0.0000 </r>
       <r>    2.2293    0.0000 </r>
       <r>    2.2293    0.0000 </r>
       <r>    2.2823    0.0000 </r>
       <r>    2.2823    0.0000 </r>
       <r>    3.4128    0.0000 </r>
       <r>    3.4131    0.0000 </r>
       <r>    3.5603    0.0000 </r>
       <r>    3.5873    0.0000 </r>
      </set>
      <set comment="kpoint 14">
       <r>  -13.3261    1.0000 </r>
       <r>  -13.3261    1.0000 </r>
       <r>  -13.2561    1.0000 </r>
       <r>  -13.2561    1.0000 </r>
       <r>  -13.2102    1.0000 </r>
       <r>  -13.2102    1.0000 </r>
       <r>   -8.4617    1.0000 </r>
       <r>   -8.4617    1.0000 </r>
       <r>   -8.1626    1.0000 </r>
       <r>   -8.1626    1.0000 </r>
       <r>   -7.9118    1.0000 </r>
       <r>   -7.9118    1.0000 </r>
       <r>   -4.0352    1.0000 </r>
       <r>   -4.0352    1.0000 </r>
       <r>   -3.9479    1.0000 </r>
       <r>   -3.9479    1.0000 </r>
       <r>   -3.8491    1.0000 </r>
       <r>   -3.8491    1.0000 </r>
       <r>   -3.3974    1.0000 </r>
       <r>   -3.3974    1.0000 </r>
       <r>   -2.6734    1.0000 </r>
       <r>   -2.6734    1.0000 </r>
       <r>   -1.9672    1.0000 </r>
       <r>   -1.9672    1.0000 </r>
       <r>   -0.6413    1.0000 </r>
       <r>   -0.6413    1.0000 </r>
       <r>   -0.5259    1.0000 </r>
       <r>   -0.5259    1.0000 </r>
       <r>   -0.4426    1.0000 </r>
       <r>   -0.4426    1.0000 </r>
       <r>    2.8476    0.0000 </r>
       <r>    2.8476    0.0000 </r>
       <r>    2.8926    0.0000 </r>
       <r>    2.8926    0.0000 </r>
       <r>    2.9895    0.0000 </r>
       <r>    2.9895    0.0000 </r>
       <r>    3.3101    0.0000 </r>
       <r>    3.3101    0.0000 </r>
       <r>    3.8701    0.0000 </r>
       <r>    3.8702    0.0000 </r>
      </set>
      <set comment="kpoint 15">
       <r>  -12.6777    1.0000 </r>
       <r>  -12.6777    1.0000 </r>
       <r>  -12.6087    1.0000 </r>
       <r>  -12.6087    1.0000 </r>
       <r>  -12.5659    1.0000 </r>
       <r>  -12.5659    1.0000 </r>
       <r>   -8.4609    1.0000 </r>
       <r>   -8.4609    1.0000 </r>
       <r>   -8.2613    1.0000 </r>
       <r>   -8.2613    1.0000 </r>
       <r>   -8.1268    1.0000 </r>
       <r>   -8.1268    1.0000 </r>
       <r>   -5.6468    1.0000 </r>
       <r>   -5.6468    1.0000 </r>
       <r>   -5.4415    1.0000 </r>
       <r>   -5.4415    1.0000 </r>
       <r>   -5.2599    1.0000 </r>
       <r>   -5.2599    1.0000 </r>
       <r>   -3.2282    1.0000 </r>
       <r>   -3.2282    1.0000 </r>
       <r>   -2.7491    1.0000 </r>
       <r>   -2.7491    1.0000 </r>
       <r>   -2.3974    1.0000 </r>
       <r>   -2.3974    1.0000 </r>
       <r>   -1.7697    1.0000 </r>
       <r>   -1.7697    1.0000 </r>
       <r>   -1.3075    1.0000 </r>
       <r>   -1.3075    1.0000 </r>
       <r>   -0.8022    1.0000 </r>
       <r>   -0.8022    1.0000 </r>
       <r>    2.7366    0.0000 </r>
       <r>    2.7366    0.0000 </r>
       <r>    3.3899    0.0000 </r>
       <r>    3.3899    0.0000 </r>
       <r>    3.6609    0.0000 </r>
       <r>    3.6609    0.0000 </r>
       <r>    3.9546    0.0000 </r>
       <r>    3.9546    0.0000 </r>
       <r>    3.9792    0.0000 </r>
       <r>    3.9792    0.0000 </r>
      </set>
      <set comment="kpoint 16">
       <r>  -11.7954    1.0000 </r>
       <r>  -11.7954    1.0000 </r>
       <r>  -11.7350    1.0000 </r>
       <r>  -11.7350    1.0000 </r>
       <r>  -11.7082    1.0000 </r>
       <r>  -11.7082    1.0000 </r>
       <r>   -9.2986    1.0000 </r>
       <r>   -9.2986    1.0000 </r>
       <r>   -9.2131    1.0000 </r>
       <r>   -9.2131    1.0000 </r>
       <r>   -9.1827    1.0000 </r>
       <r>   -9.1827    1.0000 </r>
       <r>   -5.4984    1.0000 </r>
       <r>   -5.4984    1.0000 </r>
       <r>   -5.1988    1.0000 </r>
       <r>   -5.1988    1.0000 </r>
       <r>   -4.9350    1.0000 </r>
       <r>   -4.9350    1.0000 </r>
       <r>   -4.2886    1.0000 </r>
       <r>   -4.2886    1.0000 </r>
       <r>   -3.9781    1.0000 </r>
       <r>   -3.9781    1.0000 </r>
       <r>   -3.7142    1.0000 </r>
       <r>   -3.7142    1.0000 </r>
       <r>   -1.5631    1.0000 </r>
       <r>   -1.5631    1.0000 </r>
       <r>   -1.1380    1.0000 </r>
       <r>   -1.1380    1.0000 </r>
       <r>   -0.9520    1.0000 </r>
       <r>   -0.9520    1.0000 </r>
       <r>    2.6163    0.0000 </r>
       <r>    2.6163    0.0000 </r>
       <r>    2.7801    0.0000 </r>
       <r>    2.7801    0.0000 </r>
       <r>    3.2664    0.0000 </r>
       <r>    3.2664    0.0000 </r>
       <r>    4.5322    0.0000 </r>
       <r>    4.5439    0.0000 </r>
       <r>    4.5797    0.0000 </r>
       <r>    4.5878    0.0000 </r>
      </set>
     </set>
    </set>
   </array>
  </eigenvalues>
  <separator name="orbital magnetization" >
   <v name="MAGDIPOLOUT">      0.00000000      0.00000000      0.00000000</v>
  </separator>
  <dos>
   <i name="efermi">      0.93426102 </i>
   <total>
    <array>
     <dimension dim="1">gridpoints</dimension>
     <dimension dim="2">spin</dimension>
     <field>energy</field>
     <field>total</field>
     <field>integrated</field>
     <set>
      <set comment="spin 1">
       <r>   -15.8317     0.0000     0.0000 </r>
       <r>   -15.8210     0.0000     0.0000 </r>
       <r>   -15.8103     0.0000     0.0000 </r>
       <r>   -15.7996     0.0000     0.0000 </r>
       <r>   -15.7889     0.0000     0.0000 </r>
       <r>   -15.7782     0.0000     0.0000 </r>
       <r>   -15.7675     0.0000     0.0000 </r>
       <r>   -15.7568     0.0000     0.0000 </r>
       <r>   -15.7461     0.0000     0.0000 </r>
       <r>   -15.7354     0.0000     0.0000 </r>
       <r>   -15.7247     0.0000     0.0000 </r>
       <r>   -15.7140     0.0000     0.0000 </r>
       <r>   -15.7033     0.0000     0.0000 </r>
       <r>   -15.6926     0.0000     0.0000 </r>
       <r>   -15.6819     0.0000     0.0000 </r>
       <r>   -15.6712     0.0000     0.0000 </r>
       <r>   -15.6605     0.0000     0.0000 </r>
       <r>   -15.6497     0.0000     0.0000 </r>
       <r>   -15.6390     0.0000     0.0000 </r>
       <r>   -15.6283     0.0000     0.0000 </r>
       <r>   -15.6176     0.0000     0.0000 </r>
       <r>   -15.6069     0.0000     0.0000 </r>
       <r>   -15.5962     0.0000     0.0000 </r>
       <r>   -15.5855     0.0000     0.0000 </r>
       <r>   -15.5748     0.0000     0.0000 </r>
       <r>   -15.5641     0.0000     0.0000 </r>
       <r>   -15.5534     0.0000     0.0000 </r>
       <r>   -15.5427     0.0000     0.0000 </r>
       <r>   -15.5320     0.0000     0.0000 </r>
       <r>   -15.5213     0.0000     0.0000 </r>
       <r>   -15.5106     0.0000     0.0000 </r>
       <r>   -15.4999     0.0000     0.0000 </r>
       <r>   -15.4892     0.0000     0.0000 </r>
       <r>   -15.4785     0.0000     0.0000 </r>
       <r>   -15.4678     0.0000     0.0000 </r>
       <r>   -15.4571     0.0000     0.0000 </r>
       <r>   -15.4464     0.0000     0.0000 </r>
       <r>   -15.4357     0.0000     0.0000 </r>
       <r>   -15.4250     0.0000     0.0000 </r>
       <r>   -15.4143     0.0000     0.0000 </r>
       <r>   -15.4036     0.0000     0.0000 </r>
       <r>   -15.3929     0.0000     0.0000 </r>
       <r>   -15.3822     0.0000     0.0000 </r>
       <r>   -15.3715     0.0000     0.0000 </r>
       <r>   -15.3608     0.0000     0.0000 </r>
       <r>   -15.3501     0.0000     0.0000 </r>
       <r>   -15.3394     0.0000     0.0000 </r>
       <r>   -15.3287     0.0000     0.0000 </r>
       <r>   -15.3180     0.0000     0.0000 </r>
       <r>   -15.3073     0.0000     0.0000 </r>
       <r>   -15.2966     0.0000     0.0000 </r>
       <r>   -15.2859     0.0000     0.0000 </r>
       <r>   -15.2752     0.0000     0.0000 </r>
       <r>   -15.2645     0.0000     0.0000 </r>
       <r>   -15.2538     0.0000     0.0000 </r>
       <r>   -15.2431     0.0000     0.0000 </r>
       <r>   -15.2324     0.0000     0.0000 </r>
       <r>   -15.2217     0.0000     0.0000 </r>
       <r>   -15.2110     0.0000     0.0000 </r>
       <r>   -15.2003     0.0000     0.0000 </r>
       <r>   -15.1896     0.0000     0.0000 </r>
       <r>   -15.1789     0.0000     0.0000 </r>
       <r>   -15.1682     0.0000     0.0000 </r>
       <r>   -15.1575     0.0000     0.0000 </r>
       <r>   -15.1468     0.0000     0.0000 </r>
       <r>   -15.1361     0.0000     0.0000 </r>
       <r>   -15.1254     0.0000     0.0000 </r>
       <r>   -15.1147     0.0000     0.0000 </r>
       <r>   -15.1040     0.0000     0.0000 </r>
       <r>   -15.0933     0.0000     0.0000 </r>
       <r>   -15.0826     0.0000     0.0000 </r>
       <r>   -15.0719     0.0000     0.0000 </r>
       <r>   -15.0612     0.0000     0.0000 </r>
       <r>   -15.0505     0.0000     0.0000 </r>
       <r>   -15.0398     0.0000     0.0000 </r>
       <r>   -15.0291     0.0000     0.0000 </r>
       <r>   -15.0184     0.0000     0.0000 </r>
       <r>   -15.0077     0.0000     0.0000 </r>
       <r>   -14.9970     0.0000     0.0000 </r>
       <r>   -14.9863     0.0000     0.0000 </r>
       <r>   -14.9756     0.0000     0.0000 </r>
       <r>   -14.9649     0.0000     0.0000 </r>
       <r>   -14.9542     0.0000     0.0000 </r>
       <r>   -14.9435     0.0000     0.0000 </r>
       <r>   -14.9328     0.0000     0.0000 </r>
       <r>   -14.9221     0.0000     0.0000 </r>
       <r>   -14.9114     0.0000     0.0000 </r>
       <r>   -14.9007     0.0000     0.0000 </r>
       <r>   -14.8900     0.0000     0.0000 </r>
       <r>   -14.8793     0.0106     0.0001 </r>
       <r>   -14.8686     0.4147     0.0046 </r>
       <r>   -14.8579     2.1633     0.0277 </r>
       <r>   -14.8472     1.6710     0.0456 </r>
       <r>   -14.8365     0.1875     0.0476 </r>
       <r>   -14.8258     0.0027     0.0476 </r>
       <r>   -14.8150     0.0000     0.0476 </r>
       <r>   -14.8043     0.0000     0.0476 </r>
       <r>   -14.7936     0.0000     0.0476 </r>
       <r>   -14.7829     0.0000     0.0476 </r>
       <r>   -14.7722     0.0000     0.0476 </r>
       <r>   -14.7615     0.0026     0.0476 </r>
       <r>   -14.7508     0.1818     0.0496 </r>
       <r>   -14.7401     1.6515     0.0673 </r>
       <r>   -14.7294     2.1778     0.0906 </r>
       <r>   -14.7187     0.4903     0.0958 </r>
       <r>   -14.7080     1.5211     0.1121 </r>
       <r>   -14.6973     4.8439     0.1639 </r>
       <r>   -14.6866     2.3640     0.1892 </r>
       <r>   -14.6759     1.0190     0.2001 </r>
       <r>   -14.6652     2.4467     0.2263 </r>
       <r>   -14.6545     1.0383     0.2374 </r>
       <r>   -14.6438     0.0687     0.2382 </r>
       <r>   -14.6331     0.4257     0.2427 </r>
       <r>   -14.6224     3.5019     0.2802 </r>
       <r>   -14.6117     4.2032     0.3252 </r>
       <r>   -14.6010     0.8100     0.3338 </r>
       <r>   -14.5903     1.5242     0.3502 </r>
       <r>   -14.5796     4.8426     0.4020 </r>
       <r>   -14.5689     2.3259     0.4269 </r>
       <r>   -14.5582     0.1583     0.4286 </r>
       <r>   -14.5475     0.0015     0.4286 </r>
       <r>   -14.5368     0.0412     0.4290 </r>
       <r>   -14.5261     1.1922     0.4418 </r>
       <r>   -14.5154     4.9022     0.4942 </r>
       <r>   -14.5047     5.4244     0.5523 </r>
       <r>   -14.4940     4.9508     0.6053 </r>
       <r>   -14.4833     1.3307     0.6195 </r>
       <r>   -14.4726     2.4904     0.6462 </r>
       <r>   -14.4619     9.4154     0.7469 </r>
       <r>   -14.4512     5.4668     0.8054 </r>
       <r>   -14.4405     1.9353     0.8261 </r>
       <r>   -14.4298     4.8422     0.8779 </r>
       <r>   -14.4191     2.3444     0.9030 </r>
       <r>   -14.4084     0.1610     0.9047 </r>
       <r>   -14.3977     0.0014     0.9048 </r>
       <r>   -14.3870     0.0000     0.9048 </r>
       <r>   -14.3763     0.0006     0.9048 </r>
       <r>   -14.3656     0.1223     0.9061 </r>
       <r>   -14.3549     2.9273     0.9374 </r>
       <r>   -14.3442     9.6555     1.0407 </r>
       <r>   -14.3335     4.7581     1.0916 </r>
       <r>   -14.3228     0.3327     1.0952 </r>
       <r>   -14.3121     0.0035     1.0952 </r>
       <r>   -14.3014     0.1134     1.0965 </r>
       <r>   -14.2907     2.8157     1.1266 </r>
       <r>   -14.2800     9.6115     1.2294 </r>
       <r>   -14.2693     4.9018     1.2819 </r>
       <r>   -14.2586     0.5550     1.2878 </r>
       <r>   -14.2479     2.5851     1.3155 </r>
       <r>   -14.2372     4.7581     1.3664 </r>
       <r>   -14.2265     1.3084     1.3804 </r>
       <r>   -14.2158     0.0493     1.3809 </r>
       <r>   -14.2051     0.0002     1.3810 </r>
       <r>   -14.1944     0.0000     1.3810 </r>
       <r>   -14.1837     0.0000     1.3810 </r>
       <r>   -14.1730     0.0000     1.3810 </r>
       <r>   -14.1623     0.0024     1.3810 </r>
       <r>   -14.1516     0.2245     1.3834 </r>
       <r>   -14.1409     2.7153     1.4124 </r>
       <r>   -14.1302     4.7012     1.4627 </r>
       <r>   -14.1195     1.2134     1.4757 </r>
       <r>   -14.1088     0.0454     1.4762 </r>
       <r>   -14.0981     0.2431     1.4788 </r>
       <r>   -14.0874     2.8079     1.5089 </r>
       <r>   -14.0767     4.6569     1.5587 </r>
       <r>   -14.0660     1.1505     1.5710 </r>
       <r>   -14.0553     0.0387     1.5714 </r>
       <r>   -14.0446     0.0002     1.5714 </r>
       <r>   -14.0339     0.0218     1.5717 </r>
       <r>   -14.0232     1.1335     1.5838 </r>
       <r>   -14.0125     7.7344     1.6666 </r>
       <r>   -14.0018     7.7479     1.7495 </r>
       <r>   -13.9911     1.1396     1.7617 </r>
       <r>   -13.9804     0.0220     1.7619 </r>
       <r>   -13.9696     0.0001     1.7619 </r>
       <r>   -13.9589     0.0000     1.7619 </r>
       <r>   -13.9482     0.0000     1.7619 </r>
       <r>   -13.9375     0.0137     1.7621 </r>
       <r>   -13.9268     0.6816     1.7693 </r>
       <r>   -13.9161     5.5778     1.8290 </r>
       <r>   -13.9054    12.2077     1.9597 </r>
       <r>   -13.8947     7.3851     2.0387 </r>
       <r>   -13.8840     0.8208     2.0475 </r>
       <r>   -13.8733     0.0734     2.0483 </r>
       <r>   -13.8626     2.0232     2.0699 </r>
       <r>   -13.8519     9.0750     2.1670 </r>
       <r>   -13.8412     6.0510     2.2318 </r>
       <r>   -13.8305     0.5819     2.2380 </r>
       <r>   -13.8198     0.0259     2.2383 </r>
       <r>   -13.8091     0.7732     2.2466 </r>
       <r>   -13.7984     4.2460     2.2920 </r>
       <r>   -13.7877     3.4699     2.3291 </r>
       <r>   -13.7770     1.5439     2.3457 </r>
       <r>   -13.7663     7.7469     2.4286 </r>
       <r>   -13.7556     7.7577     2.5116 </r>
       <r>   -13.7449     1.8442     2.5313 </r>
       <r>   -13.7342     4.1627     2.5759 </r>
       <r>   -13.7235     3.5771     2.6141 </r>
       <r>   -13.7128     0.4510     2.6190 </r>
       <r>   -13.7021     0.0074     2.6190 </r>
       <r>   -13.6914     0.0000     2.6190 </r>
       <r>   -13.6807     0.0006     2.6191 </r>
       <r>   -13.6700     0.1165     2.6203 </r>
       <r>   -13.6593     2.8552     2.6509 </r>
       <r>   -13.6486     9.6279     2.7539 </r>
       <r>   -13.6379     4.8492     2.8058 </r>
       <r>   -13.6272     0.3470     2.8095 </r>
       <r>   -13.6165     0.0063     2.8096 </r>
       <r>   -13.6058     0.3497     2.8133 </r>
       <r>   -13.5951     4.8661     2.8654 </r>
       <r>   -13.5844     9.6225     2.9683 </r>
       <r>   -13.5737     2.8501     2.9988 </r>
       <r>   -13.5630     0.5898     3.0052 </r>
       <r>   -13.5523     3.6419     3.0441 </r>
       <r>   -13.5416     4.0854     3.0878 </r>
       <r>   -13.5309     0.6758     3.0951 </r>
       <r>   -13.5202     0.0148     3.0952 </r>
       <r>   -13.5095     0.0004     3.0952 </r>
       <r>   -13.4988     0.0646     3.0959 </r>
       <r>   -13.4881     1.5059     3.1120 </r>
       <r>   -13.4774     4.8423     3.1639 </r>
       <r>   -13.4667     2.3268     3.1888 </r>
       <r>   -13.4560     0.1711     3.1906 </r>
       <r>   -13.4453     0.6191     3.1972 </r>
       <r>   -13.4346     3.9750     3.2398 </r>
       <r>   -13.4239     3.7628     3.2800 </r>
       <r>   -13.4132     0.5219     3.2856 </r>
       <r>   -13.4025     0.0095     3.2857 </r>
       <r>   -13.3918     0.0000     3.2857 </r>
       <r>   -13.3811     0.0000     3.2857 </r>
       <r>   -13.3704     0.0000     3.2857 </r>
       <r>   -13.3597     0.0012     3.2857 </r>
       <r>   -13.3490     0.2013     3.2879 </r>
       <r>   -13.3383     4.3991     3.3350 </r>
       <r>   -13.3276    16.4508     3.5110 </r>
       <r>   -13.3169    12.6037     3.6459 </r>
       <r>   -13.3062     1.8976     3.6662 </r>
       <r>   -13.2955     0.0449     3.6667 </r>
       <r>   -13.2848     0.0006     3.6667 </r>
       <r>   -13.2741     0.0979     3.6677 </r>
       <r>   -13.2634     2.6084     3.6956 </r>
       <r>   -13.2527     9.5238     3.7975 </r>
       <r>   -13.2420     5.9810     3.8616 </r>
       <r>   -13.2313     7.2925     3.9396 </r>
       <r>   -13.2206     9.7510     4.0439 </r>
       <r>   -13.2099     9.5043     4.1456 </r>
       <r>   -13.1992     7.6586     4.2276 </r>
       <r>   -13.1885     3.4805     4.2648 </r>
       <r>   -13.1778     9.4256     4.3657 </r>
       <r>   -13.1671     5.4217     4.4237 </r>
       <r>   -13.1564     0.4472     4.4285 </r>
       <r>   -13.1457     0.0047     4.4286 </r>
       <r>   -13.1350     0.0000     4.4286 </r>
       <r>   -13.1242     0.0000     4.4286 </r>
       <r>   -13.1135     0.0000     4.4286 </r>
       <r>   -13.1028     0.0000     4.4286 </r>
       <r>   -13.0921     0.0000     4.4286 </r>
       <r>   -13.0814     0.0000     4.4286 </r>
       <r>   -13.0707     0.0000     4.4286 </r>
       <r>   -13.0600     0.0000     4.4286 </r>
       <r>   -13.0493     0.0000     4.4286 </r>
       <r>   -13.0386     0.0000     4.4286 </r>
       <r>   -13.0279     0.0000     4.4286 </r>
       <r>   -13.0172     0.0000     4.4286 </r>
       <r>   -13.0065     0.0000     4.4286 </r>
       <r>   -12.9958     0.0000     4.4286 </r>
       <r>   -12.9851     0.0000     4.4286 </r>
       <r>   -12.9744     0.0000     4.4286 </r>
       <r>   -12.9637     0.0000     4.4286 </r>
       <r>   -12.9530     0.0000     4.4286 </r>
       <r>   -12.9423     0.0000     4.4286 </r>
       <r>   -12.9316     0.0000     4.4286 </r>
       <r>   -12.9209     0.0000     4.4286 </r>
       <r>   -12.9102     0.0000     4.4286 </r>
       <r>   -12.8995     0.0000     4.4286 </r>
       <r>   -12.8888     0.0000     4.4286 </r>
       <r>   -12.8781     0.0000     4.4286 </r>
       <r>   -12.8674     0.0000     4.4286 </r>
       <r>   -12.8567     0.0029     4.4286 </r>
       <r>   -12.8460     0.2561     4.4313 </r>
       <r>   -12.8353     2.8711     4.4621 </r>
       <r>   -12.8246     4.6244     4.5116 </r>
       <r>   -12.8139     1.1089     4.5234 </r>
       <r>   -12.8032     0.0388     4.5238 </r>
       <r>   -12.7925     0.2448     4.5265 </r>
       <r>   -12.7818     2.8166     4.5566 </r>
       <r>   -12.7711     4.6949     4.6068 </r>
       <r>   -12.7604     2.3955     4.6325 </r>
       <r>   -12.7497     6.0201     4.6969 </r>
       <r>   -12.7390     7.4774     4.7769 </r>
       <r>   -12.7283     2.8379     4.8073 </r>
       <r>   -12.7176     0.2074     4.8095 </r>
       <r>   -12.7069     0.0024     4.8095 </r>
       <r>   -12.6962     0.0795     4.8104 </r>
       <r>   -12.6855     2.3934     4.8360 </r>
       <r>   -12.6748    10.8311     4.9519 </r>
       <r>   -12.6641    10.6744     5.0661 </r>
       <r>   -12.6534     7.0886     5.1420 </r>
       <r>   -12.6427     9.9311     5.2483 </r>
       <r>   -12.6320     3.3612     5.2842 </r>
       <r>   -12.6213     1.6254     5.3016 </r>
       <r>   -12.6106    14.5899     5.4578 </r>
       <r>   -12.5999    22.5931     5.6995 </r>
       <r>   -12.5892     5.6307     5.7598 </r>
       <r>   -12.5785     0.8627     5.7690 </r>
       <r>   -12.5678     6.3529     5.8370 </r>
       <r>   -12.5571     9.1682     5.9351 </r>
       <r>   -12.5464     6.3377     6.0029 </r>
       <r>   -12.5357    12.4324     6.1360 </r>
       <r>   -12.5250    16.0945     6.3082 </r>
       <r>   -12.5143    15.2985     6.4719 </r>
       <r>   -12.5036     4.8520     6.5238 </r>
       <r>   -12.4929     4.4682     6.5717 </r>
       <r>   -12.4822     9.7952     6.6765 </r>
       <r>   -12.4715     4.1911     6.7213 </r>
       <r>   -12.4608     4.4516     6.7690 </r>
       <r>   -12.4501     3.3940     6.8053 </r>
       <r>   -12.4394     0.3903     6.8095 </r>
       <r>   -12.4287     0.0058     6.8095 </r>
       <r>   -12.4180     0.0000     6.8095 </r>
       <r>   -12.4073     0.0001     6.8095 </r>
       <r>   -12.3966     0.0225     6.8098 </r>
       <r>   -12.3859     0.6237     6.8164 </r>
       <r>   -12.3752     2.3614     6.8417 </r>
       <r>   -12.3645     1.3334     6.8560 </r>
       <r>   -12.3538     0.1076     6.8571 </r>
       <r>   -12.3431     0.0011     6.8571 </r>
       <r>   -12.3324     0.0000     6.8571 </r>
       <r>   -12.3217     0.0000     6.8571 </r>
       <r>   -12.3110     0.0046     6.8572 </r>
       <r>   -12.3003     0.4397     6.8619 </r>
       <r>   -12.2895     5.4066     6.9198 </r>
       <r>   -12.2788    10.3285     7.0303 </r>
       <r>   -12.2681     6.8822     7.1039 </r>
       <r>   -12.2574     3.2956     7.1392 </r>
       <r>   -12.2467     0.3411     7.1428 </r>
       <r>   -12.2360     0.3890     7.1470 </r>
       <r>   -12.2253     5.0763     7.2013 </r>
       <r>   -12.2146     9.5706     7.3038 </r>
       <r>   -12.2039     3.7868     7.3443 </r>
       <r>   -12.1932     7.7739     7.4275 </r>
       <r>   -12.1825     7.8119     7.5111 </r>
       <r>   -12.1718     1.2851     7.5248 </r>
       <r>   -12.1611     3.3773     7.5610 </r>
       <r>   -12.1504    13.7271     7.7079 </r>
       <r>   -12.1397    10.1989     7.8170 </r>
       <r>   -12.1290     7.6134     7.8985 </r>
       <r>   -12.1183     4.5833     7.9475 </r>
       <r>   -12.1076     0.4490     7.9523 </r>
       <r>   -12.0969     0.0057     7.9524 </r>
       <r>   -12.0862     0.0000     7.9524 </r>
       <r>   -12.0755     0.0000     7.9524 </r>
       <r>   -12.0648     0.0000     7.9524 </r>
       <r>   -12.0541     0.0191     7.9526 </r>
       <r>   -12.0434     1.0490     7.9638 </r>
       <r>   -12.0327     7.5384     8.0445 </r>
       <r>   -12.0220     7.9381     8.1294 </r>
       <r>   -12.0113     1.2296     8.1426 </r>
       <r>   -12.0006     0.0253     8.1429 </r>
       <r>   -11.9899     0.0545     8.1434 </r>
       <r>   -11.9792     1.9015     8.1638 </r>
       <r>   -11.9685     9.0011     8.2601 </r>
       <r>   -11.9578     7.2113     8.3373 </r>
       <r>   -11.9471     3.0828     8.3703 </r>
       <r>   -11.9364     0.9933     8.3809 </r>
       <r>   -11.9257     1.7834     8.4000 </r>
       <r>   -11.9150     9.0426     8.4968 </r>
       <r>   -11.9043    12.4516     8.6300 </r>
       <r>   -11.8936    20.2790     8.8470 </r>
       <r>   -11.8829    14.6612     9.0039 </r>
       <r>   -11.8722     3.8059     9.0446 </r>
       <r>   -11.8615     0.2757     9.0476 </r>
       <r>   -11.8508     0.0031     9.0476 </r>
       <r>   -11.8401     0.0000     9.0476 </r>
       <r>   -11.8294     0.0000     9.0476 </r>
       <r>   -11.8187     0.0089     9.0477 </r>
       <r>   -11.8080     0.6660     9.0548 </r>
       <r>   -11.7973     6.3855     9.1232 </r>
       <r>   -11.7866     8.8630     9.2180 </r>
       <r>   -11.7759     1.8252     9.2376 </r>
       <r>   -11.7652     0.0507     9.2381 </r>
       <r>   -11.7545     0.0513     9.2386 </r>
       <r>   -11.7438     1.8368     9.2583 </r>
       <r>   -11.7331     8.8812     9.3533 </r>
       <r>   -11.7224     6.8827     9.4270 </r>
       <r>   -11.7117     7.8609     9.5111 </r>
       <r>   -11.7010    14.4279     9.6655 </r>
       <r>   -11.6903     4.3711     9.7123 </r>
       <r>   -11.6796     0.1855     9.7143 </r>
       <r>   -11.6689     0.0010     9.7143 </r>
       <r>   -11.6582     0.0000     9.7143 </r>
       <r>   -11.6475     0.0000     9.7143 </r>
       <r>   -11.6368     0.0000     9.7143 </r>
       <r>   -11.6261     0.0000     9.7143 </r>
       <r>   -11.6154     0.0000     9.7143 </r>
       <r>   -11.6047     0.0000     9.7143 </r>
       <r>   -11.5940     0.0000     9.7143 </r>
       <r>   -11.5833     0.0000     9.7143 </r>
       <r>   -11.5726     0.0000     9.7143 </r>
       <r>   -11.5619     0.0000     9.7143 </r>
       <r>   -11.5512     0.0067     9.7144 </r>
       <r>   -11.5405     0.5608     9.7204 </r>
       <r>   -11.5298     5.9608     9.7841 </r>
       <r>   -11.5191     9.1280     9.8818 </r>
       <r>   -11.5084     2.0788     9.9041 </r>
       <r>   -11.4977     0.0640     9.9048 </r>
       <r>   -11.4870     0.0002     9.9048 </r>
       <r>   -11.4763     0.0000     9.9048 </r>
       <r>   -11.4656     0.0000     9.9048 </r>
       <r>   -11.4549     0.0000     9.9048 </r>
       <r>   -11.4441     0.0000     9.9048 </r>
       <r>   -11.4334     0.0050     9.9048 </r>
       <r>   -11.4227     0.4688     9.9098 </r>
       <r>   -11.4120     5.5614     9.9693 </r>
       <r>   -11.4013    10.3583    10.0802 </r>
       <r>   -11.3906     6.8869    10.1539 </r>
       <r>   -11.3799     3.1222    10.1873 </r>
       <r>   -11.3692     0.5479    10.1932 </r>
       <r>   -11.3585     4.8175    10.2447 </r>
       <r>   -11.3478    18.2270    10.4398 </r>
       <r>   -11.3371    21.7908    10.6730 </r>
       <r>   -11.3264     7.7616    10.7560 </r>
       <r>   -11.3157     0.8255    10.7649 </r>
       <r>   -11.3050     5.2203    10.8207 </r>
       <r>   -11.2943    14.4670    10.9755 </r>
       <r>   -11.2836     6.3249    11.0432 </r>
       <r>   -11.2729     0.5004    11.0486 </r>
       <r>   -11.2622     2.5298    11.0756 </r>
       <r>   -11.2515     9.4649    11.1769 </r>
       <r>   -11.2408     5.2890    11.2335 </r>
       <r>   -11.2301     0.4463    11.2383 </r>
       <r>   -11.2194     1.2918    11.2521 </r>
       <r>   -11.2087     9.8170    11.3572 </r>
       <r>   -11.1980    12.5668    11.4917 </r>
       <r>   -11.1873     3.5462    11.5296 </r>
       <r>   -11.1766     6.5112    11.5993 </r>
       <r>   -11.1659    10.7791    11.7146 </r>
       <r>   -11.1552     8.9859    11.8108 </r>
       <r>   -11.1445     6.9943    11.8857 </r>
       <r>   -11.1338     1.7127    11.9040 </r>
       <r>   -11.1231     0.0727    11.9048 </r>
       <r>   -11.1124     0.0004    11.9048 </r>
       <r>   -11.1017     0.0000    11.9048 </r>
       <r>   -11.0910     0.0000    11.9048 </r>
       <r>   -11.0803     0.0000    11.9048 </r>
       <r>   -11.0696     0.0000    11.9048 </r>
       <r>   -11.0589     0.0000    11.9048 </r>
       <r>   -11.0482     0.0000    11.9048 </r>
       <r>   -11.0375     0.0000    11.9048 </r>
       <r>   -11.0268     0.0000    11.9048 </r>
       <r>   -11.0161     0.0000    11.9048 </r>
       <r>   -11.0054     0.0001    11.9048 </r>
       <r>   -10.9947     0.0211    11.9050 </r>
       <r>   -10.9840     0.8263    11.9138 </r>
       <r>   -10.9733     4.3222    11.9601 </r>
       <r>   -10.9626     3.3478    11.9959 </r>
       <r>   -10.9519     0.3766    11.9999 </r>
       <r>   -10.9412     0.0055    12.0000 </r>
       <r>   -10.9305     0.0000    12.0000 </r>
       <r>   -10.9198     0.0000    12.0000 </r>
       <r>   -10.9091     0.0000    12.0000 </r>
       <r>   -10.8984     0.0000    12.0000 </r>
       <r>   -10.8877     0.0000    12.0000 </r>
       <r>   -10.8770     0.0000    12.0000 </r>
       <r>   -10.8663     0.0000    12.0000 </r>
       <r>   -10.8556     0.0000    12.0000 </r>
       <r>   -10.8449     0.0000    12.0000 </r>
       <r>   -10.8342     0.0000    12.0000 </r>
       <r>   -10.8235     0.0000    12.0000 </r>
       <r>   -10.8128     0.0000    12.0000 </r>
       <r>   -10.8021     0.0000    12.0000 </r>
       <r>   -10.7914     0.0000    12.0000 </r>
       <r>   -10.7807     0.0000    12.0000 </r>
       <r>   -10.7700     0.0000    12.0000 </r>
       <r>   -10.7593     0.0000    12.0000 </r>
       <r>   -10.7486     0.0000    12.0000 </r>
       <r>   -10.7379     0.0000    12.0000 </r>
       <r>   -10.7272     0.0000    12.0000 </r>
       <r>   -10.7165     0.0000    12.0000 </r>
       <r>   -10.7058     0.0000    12.0000 </r>
       <r>   -10.6951     0.0000    12.0000 </r>
       <r>   -10.6844     0.0000    12.0000 </r>
       <r>   -10.6737     0.0000    12.0000 </r>
       <r>   -10.6630     0.0000    12.0000 </r>
       <r>   -10.6523     0.0000    12.0000 </r>
       <r>   -10.6416     0.0000    12.0000 </r>
       <r>   -10.6309     0.0000    12.0000 </r>
       <r>   -10.6202     0.0000    12.0000 </r>
       <r>   -10.6094     0.0000    12.0000 </r>
       <r>   -10.5987     0.0000    12.0000 </r>
       <r>   -10.5880     0.0000    12.0000 </r>
       <r>   -10.5773     0.0000    12.0000 </r>
       <r>   -10.5666     0.0000    12.0000 </r>
       <r>   -10.5559     0.0000    12.0000 </r>
       <r>   -10.5452     0.0000    12.0000 </r>
       <r>   -10.5345     0.0000    12.0000 </r>
       <r>   -10.5238     0.0000    12.0000 </r>
       <r>   -10.5131     0.0000    12.0000 </r>
       <r>   -10.5024     0.0000    12.0000 </r>
       <r>   -10.4917     0.0000    12.0000 </r>
       <r>   -10.4810     0.0000    12.0000 </r>
       <r>   -10.4703     0.0000    12.0000 </r>
       <r>   -10.4596     0.0000    12.0000 </r>
       <r>   -10.4489     0.0000    12.0000 </r>
       <r>   -10.4382     0.0000    12.0000 </r>
       <r>   -10.4275     0.0000    12.0000 </r>
       <r>   -10.4168     0.0000    12.0000 </r>
       <r>   -10.4061     0.0000    12.0000 </r>
       <r>   -10.3954     0.0000    12.0000 </r>
       <r>   -10.3847     0.0000    12.0000 </r>
       <r>   -10.3740     0.0000    12.0000 </r>
       <r>   -10.3633     0.0000    12.0000 </r>
       <r>   -10.3526     0.0000    12.0000 </r>
       <r>   -10.3419     0.0000    12.0000 </r>
       <r>   -10.3312     0.0000    12.0000 </r>
       <r>   -10.3205     0.0000    12.0000 </r>
       <r>   -10.3098     0.0000    12.0000 </r>
       <r>   -10.2991     0.0000    12.0000 </r>
       <r>   -10.2884     0.0000    12.0000 </r>
       <r>   -10.2777     0.0000    12.0000 </r>
       <r>   -10.2670     0.0000    12.0000 </r>
       <r>   -10.2563     0.0000    12.0000 </r>
       <r>   -10.2456     0.0000    12.0000 </r>
       <r>   -10.2349     0.0000    12.0000 </r>
       <r>   -10.2242     0.0000    12.0000 </r>
       <r>   -10.2135     0.0000    12.0000 </r>
       <r>   -10.2028     0.0049    12.0001 </r>
       <r>   -10.1921     0.3503    12.0038 </r>
       <r>   -10.1814     3.2562    12.0386 </r>
       <r>   -10.1707     4.3881    12.0856 </r>
       <r>   -10.1600     0.8767    12.0950 </r>
       <r>   -10.1493     0.0235    12.0952 </r>
       <r>   -10.1386     0.0001    12.0952 </r>
[...]
        <r>  0.0087  0.0154  0.0061  0.0040  0.0000  0.0000  0.0000  0.0000  0.0000 </r>
        <r>  0.0120  0.0137  0.0050  0.0058  0.0000  0.0000  0.0000  0.0000  0.0000 </r>
        <r>  0.0096  0.0051  0.0287  0.0177  0.0000  0.0000  0.0000  0.0000  0.0000 </r>
        <r>  0.0129  0.0034  0.0276  0.0196  0.0000  0.0000  0.0000  0.0000  0.0000 </r>
        <r>  0.0070  0.0096  0.0038  0.0026  0.0000  0.0000  0.0000  0.0000  0.0000 </r>
        <r>  0.0092  0.0083  0.0031  0.0039  0.0000  0.0000  0.0000  0.0000  0.0000 </r>
        <r>  0.0082  0.0035  0.0210  0.0133  0.0000  0.0000  0.0000  0.0000  0.0000 </r>
        <r>  0.0104  0.0024  0.0204  0.0144  0.0000  0.0000  0.0000  0.0000  0.0000 </r>
       </set>
       <set comment="band 25">
        <r>  0.0057  0.0229  0.0060  0.0012  0.0000  0.0000  0.0000  0.0000  0.0000 </r>
        <r>  0.0010  0.0030  0.0015  0.0053  0.0000  0.0000  0.0000  0.0000  0.0000 </r>
        <r>  0.0019  0.0292  0.0054  0.0019  0.0000  0.0000  0.0000  0.0000  0.0000 </r>
        <r>  0.0002  0.0060  0.0030  0.0039  0.0000  0.0000  0.0000  0.0000  0.0000 </r>
        <r>  0.0093  0.0595  0.0109  0.0010  0.0000  0.0000  0.0000  0.0000  0.0000 </r>
        <r>  0.0019  0.0062  0.0011  0.0091  0.0000  0.0000  0.0000  0.0000  0.0000 </r>
        <r>  0.0083  0.0706  0.0121  0.0017  0.0000  0.0000  0.0000  0.0000  0.0000 </r>
        <r>  0.0008  0.0174  0.0023  0.0098  0.0000  0.0000  0.0000  0.0000  0.0000 </r>
        <r>  0.0024  0.0259  0.0035  0.0007  0.0000  0.0000  0.0000  0.0000  0.0000 </r>
        <r>  0.0007  0.0026  0.0011  0.0026  0.0000  0.0000  0.0000  0.0000  0.0000 </r>
        <r>  0.0053  0.0294  0.0051  0.0005  0.0000  0.0000  0.0000  0.0000  0.0000 </r>
        <r>  0.0006  0.0095  0.0005  0.0046  0.0000  0.0000  0.0000  0.0000  0.0000 </r>
       </set>
       <set comment="band 26">
        <r>  0.0006  0.0095  0.0005  0.0046  0.0000  0.0000  0.0000  0.0000  0.0000 </r>
        <r>  0.0053  0.0294  0.0051  0.0005  0.0000  0.0000  0.0000  0.0000  0.0000 </r>
        <r>  0.0007  0.0026  0.0011  0.0026  0.0000  0.0000  0.0000  0.0000  0.0000 </r>
        <r>  0.0024  0.0259  0.0035  0.0007  0.0000  0.0000  0.0000  0.0000  0.0000 </r>
        <r>  0.0008  0.0174  0.0023  0.0098  0.0000  0.0000  0.0000  0.0000  0.0000 </r>
        <r>  0.0083  0.0706  0.0121  0.0017  0.0000  0.0000  0.0000  0.0000  0.0000 </r>
        <r>  0.0019  0.0062  0.0011  0.0091  0.0000  0.0000  0.0000  0.0000  0.0000 </r>
        <r>  0.0093  0.0595  0.0109  0.0010  0.0000  0.0000  0.0000  0.0000  0.0000 </r>
        <r>  0.0002  0.0060  0.0030  0.0039  0.0000  0.0000  0.0000  0.0000  0.0000 </r>
        <r>  0.0019  0.0292  0.0054  0.0019  0.0000  0.0000  0.0000  0.0000  0.0000 </r>
        <r>  0.0010  0.0030  0.0015  0.0053  0.0000  0.0000  0.0000  0.0000  0.0000 </r>
        <r>  0.0057  0.0229  0.0060  0.0012  0.0000  0.0000  0.0000  0.0000  0.0000 </r>
       </set>
       <set comment="band 27">
        <r>  0.0013  0.0083  0.0014  0.0098  0.0000  0.0000  0.0000  0.0000  0.0000 </r>
        <r>  0.0101  0.0651  0.0116  0.0012  0.0000  0.0000  0.0000  0.0000  0.0000 </r>
        <r>  0.0011  0.0107  0.0015  0.0095  0.0000  0.0000  0.0000  0.0000  0.0000 </r>
        <r>  0.0090  0.0676  0.0113  0.0012  0.0000  0.0000  0.0000  0.0000  0.0000 </r>
        <r>  0.0001  0.0007  0.0028  0.0003  0.0000  0.0000  0.0000  0.0000  0.0000 </r>
        <r>  0.0003  0.0002  0.0004  0.0017  0.0000  0.0000  0.0000  0.0000  0.0000 </r>
        <r>  0.0001  0.0007  0.0028  0.0002  0.0000  0.0000  0.0000  0.0000  0.0000 </r>
        <r>  0.0003  0.0001  0.0003  0.0016  0.0000  0.0000  0.0000  0.0000  0.0000 </r>
        <r>  0.0012  0.0083  0.0013  0.0094  0.0000  0.0000  0.0000  0.0000  0.0000 </r>
        <r>  0.0091  0.0652  0.0111  0.0011  0.0000  0.0000  0.0000  0.0000  0.0000 </r>
        <r>  0.0012  0.0107  0.0016  0.0099  0.0000  0.0000  0.0000  0.0000  0.0000 </r>
        <r>  0.0100  0.0675  0.0118  0.0013  0.0000  0.0000  0.0000  0.0000  0.0000 </r>
       </set>
       <set comment="band 28">
        <r>  0.0100  0.0675  0.0118  0.0013  0.0000  0.0000  0.0000  0.0000  0.0000 </r>
        <r>  0.0012  0.0107  0.0016  0.0099  0.0000  0.0000  0.0000  0.0000  0.0000 </r>
        <r>  0.0091  0.0652  0.0111  0.0011  0.0000  0.0000  0.0000  0.0000  0.0000 </r>
        <r>  0.0012  0.0083  0.0013  0.0094  0.0000  0.0000  0.0000  0.0000  0.0000 </r>
        <r>  0.0003  0.0001  0.0003  0.0016  0.0000  0.0000  0.0000  0.0000  0.0000 </r>
        <r>  0.0001  0.0007  0.0028  0.0002  0.0000  0.0000  0.0000  0.0000  0.0000 </r>
        <r>  0.0003  0.0002  0.0004  0.0017  0.0000  0.0000  0.0000  0.0000  0.0000 </r>
        <r>  0.0001  0.0007  0.0028  0.0003  0.0000  0.0000  0.0000  0.0000  0.0000 </r>
        <r>  0.0090  0.0676  0.0113  0.0012  0.0000  0.0000  0.0000  0.0000  0.0000 </r>
        <r>  0.0011  0.0107  0.0015  0.0095  0.0000  0.0000  0.0000  0.0000  0.0000 </r>
        <r>  0.0101  0.0651  0.0116  0.0012  0.0000  0.0000  0.0000  0.0000  0.0000 </r>
        <r>  0.0013  0.0083  0.0014  0.0098  0.0000  0.0000  0.0000  0.0000  0.0000 </r>
       </set>
       <set comment="band 29">
        <r>  0.0003  0.0014  0.0013  0.0059  0.0000  0.0000  0.0000  0.0000  0.0000 </r>
        <r>  0.0060  0.0441  0.0076  0.0009  0.0000  0.0000  0.0000  0.0000  0.0000 </r>
        <r>  0.0002  0.0013  0.0014  0.0065  0.0000  0.0000  0.0000  0.0000  0.0000 </r>
        <r>  0.0060  0.0403  0.0065  0.0011  0.0000  0.0000  0.0000  0.0000  0.0000 </r>
        <r>  0.0008  0.0027  0.0004  0.0096  0.0000  0.0000  0.0000  0.0000  0.0000 </r>
        <r>  0.0102  0.0702  0.0108  0.0003  0.0000  0.0000  0.0000  0.0000  0.0000 </r>
        <r>  0.0003  0.0026  0.0005  0.0097  0.0000  0.0000  0.0000  0.0000  0.0000 </r>
        <r>  0.0097  0.0701  0.0109  0.0004  0.0000  0.0000  0.0000  0.0000  0.0000 </r>
        <r>  0.0005  0.0027  0.0007  0.0059  0.0000  0.0000  0.0000  0.0000  0.0000 </r>
        <r>  0.0063  0.0417  0.0058  0.0005  0.0000  0.0000  0.0000  0.0000  0.0000 </r>
        <r>  0.0002  0.0021  0.0006  0.0054  0.0000  0.0000  0.0000  0.0000  0.0000 </r>
        <r>  0.0059  0.0447  0.0069  0.0004  0.0000  0.0000  0.0000  0.0000  0.0000 </r>
       </set>
       <set comment="band 30">
        <r>  0.0059  0.0447  0.0069  0.0004  0.0000  0.0000  0.0000  0.0000  0.0000 </r>
        <r>  0.0002  0.0021  0.0006  0.0054  0.0000  0.0000  0.0000  0.0000  0.0000 </r>
        <r>  0.0063  0.0417  0.0058  0.0005  0.0000  0.0000  0.0000  0.0000  0.0000 </r>
        <r>  0.0005  0.0027  0.0007  0.0059  0.0000  0.0000  0.0000  0.0000  0.0000 </r>
        <r>  0.0097  0.0701  0.0109  0.0004  0.0000  0.0000  0.0000  0.0000  0.0000 </r>
        <r>  0.0003  0.0026  0.0005  0.0097  0.0000  0.0000  0.0000  0.0000  0.0000 </r>
        <r>  0.0102  0.0702  0.0108  0.0003  0.0000  0.0000  0.0000  0.0000  0.0000 </r>
        <r>  0.0008  0.0027  0.0004  0.0096  0.0000  0.0000  0.0000  0.0000  0.0000 </r>
        <r>  0.0060  0.0403  0.0065  0.0011  0.0000  0.0000  0.0000  0.0000  0.0000 </r>
        <r>  0.0002  0.0013  0.0014  0.0065  0.0000  0.0000  0.0000  0.0000  0.0000 </r>
        <r>  0.0060  0.0441  0.0076  0.0009  0.0000  0.0000  0.0000  0.0000  0.0000 </r>
        <r>  0.0003  0.0014  0.0013  0.0059  0.0000  0.0000  0.0000  0.0000  0.0000 </r>
       </set>
       <set comment="band 31">
        <r>  0.0017  0.0082  0.0001  0.0014  0.0000  0.0000  0.0000  0.0000  0.0000 </r>
        <r>  0.0052  0.0243  0.0004  0.0003  0.0000  0.0000  0.0000  0.0000  0.0000 </r>
        <r>  0.0054  0.0043  0.0021  0.0015  0.0000  0.0000  0.0000  0.0000  0.0000 </r>
        <r>  0.0076  0.0178  0.0013  0.0007  0.0000  0.0000  0.0000  0.0000  0.0000 </r>
        <r>  0.0021  0.0091  0.0007  0.0035  0.0000  0.0000  0.0000  0.0000  0.0000 </r>
        <r>  0.0130  0.0519  0.0014  0.0006  0.0000  0.0000  0.0000  0.0000  0.0000 </r>
        <r>  0.0031  0.0093  0.0013  0.0036  0.0000  0.0000  0.0000  0.0000  0.0000 </r>
        <r>  0.0140  0.0522  0.0020  0.0007  0.0000  0.0000  0.0000  0.0000  0.0000 </r>
        <r>  0.0030  0.0027  0.0015  0.0012  0.0000  0.0000  0.0000  0.0000  0.0000 </r>
        <r>  0.0053  0.0163  0.0007  0.0004  0.0000  0.0000  0.0000  0.0000  0.0000 </r>
        <r>  0.0009  0.0043  0.0003  0.0014  0.0000  0.0000  0.0000  0.0000  0.0000 </r>
        <r>  0.0044  0.0204  0.0006  0.0002  0.0000  0.0000  0.0000  0.0000  0.0000 </r>
       </set>
       <set comment="band 32">
        <r>  0.0044  0.0204  0.0006  0.0002  0.0000  0.0000  0.0000  0.0000  0.0000 </r>
        <r>  0.0009  0.0043  0.0003  0.0014  0.0000  0.0000  0.0000  0.0000  0.0000 </r>
        <r>  0.0053  0.0163  0.0007  0.0004  0.0000  0.0000  0.0000  0.0000  0.0000 </r>
        <r>  0.0030  0.0027  0.0015  0.0012  0.0000  0.0000  0.0000  0.0000  0.0000 </r>
        <r>  0.0140  0.0522  0.0020  0.0007  0.0000  0.0000  0.0000  0.0000  0.0000 </r>
        <r>  0.0031  0.0093  0.0013  0.0036  0.0000  0.0000  0.0000  0.0000  0.0000 </r>
        <r>  0.0130  0.0519  0.0014  0.0006  0.0000  0.0000  0.0000  0.0000  0.0000 </r>
        <r>  0.0021  0.0091  0.0007  0.0035  0.0000  0.0000  0.0000  0.0000  0.0000 </r>
        <r>  0.0076  0.0178  0.0013  0.0007  0.0000  0.0000  0.0000  0.0000  0.0000 </r>
        <r>  0.0054  0.0043  0.0021  0.0015  0.0000  0.0000  0.0000  0.0000  0.0000 </r>
        <r>  0.0052  0.0243  0.0004  0.0003  0.0000  0.0000  0.0000  0.0000  0.0000 </r>
        <r>  0.0017  0.0082  0.0001  0.0014  0.0000  0.0000  0.0000  0.0000  0.0000 </r>
       </set>
       <set comment="band 33">
        <r>  0.0038  0.0095  0.0012  0.0031  0.0000  0.0000  0.0000  0.0000  0.0000 </r>
        <r>  0.0094  0.0313  0.0026  0.0016  0.0000  0.0000  0.0000  0.0000  0.0000 </r>
        <r>  0.0023  0.0198  0.0002  0.0016  0.0000  0.0000  0.0000  0.0000  0.0000 </r>
        <r>  0.0075  0.0423  0.0008  0.0006  0.0000  0.0000  0.0000  0.0000  0.0000 </r>
        <r>  0.0041  0.0042  0.0009  0.0002  0.0000  0.0000  0.0000  0.0000  0.0000 </r>
        <r>  0.0013  0.0019  0.0004  0.0002  0.0000  0.0000  0.0000  0.0000  0.0000 </r>
        <r>  0.0044  0.0033  0.0007  0.0001  0.0000  0.0000  0.0000  0.0000  0.0000 </r>
        <r>  0.0017  0.0010  0.0002  0.0001  0.0000  0.0000  0.0000  0.0000  0.0000 </r>
        <r>  0.0038  0.0097  0.0004  0.0026  0.0000  0.0000  0.0000  0.0000  0.0000 </r>
        <r>  0.0090  0.0323  0.0010  0.0016  0.0000  0.0000  0.0000  0.0000  0.0000 </r>
        <r>  0.0025  0.0194  0.0006  0.0022  0.0000  0.0000  0.0000  0.0000  0.0000 </r>
        <r>  0.0081  0.0413  0.0020  0.0007  0.0000  0.0000  0.0000  0.0000  0.0000 </r>
       </set>
       <set comment="band 34">
        <r>  0.0081  0.0413  0.0020  0.0007  0.0000  0.0000  0.0000  0.0000  0.0000 </r>
        <r>  0.0025  0.0194  0.0006  0.0022  0.0000  0.0000  0.0000  0.0000  0.0000 </r>
        <r>  0.0090  0.0323  0.0010  0.0016  0.0000  0.0000  0.0000  0.0000  0.0000 </r>
        <r>  0.0038  0.0097  0.0004  0.0026  0.0000  0.0000  0.0000  0.0000  0.0000 </r>
        <r>  0.0017  0.0010  0.0002  0.0001  0.0000  0.0000  0.0000  0.0000  0.0000 </r>
        <r>  0.0044  0.0033  0.0007  0.0001  0.0000  0.0000  0.0000  0.0000  0.0000 </r>
        <r>  0.0013  0.0019  0.0004  0.0002  0.0000  0.0000  0.0000  0.0000  0.0000 </r>
        <r>  0.0041  0.0042  0.0009  0.0002  0.0000  0.0000  0.0000  0.0000  0.0000 </r>
        <r>  0.0075  0.0423  0.0008  0.0006  0.0000  0.0000  0.0000  0.0000  0.0000 </r>
        <r>  0.0023  0.0198  0.0002  0.0016  0.0000  0.0000  0.0000  0.0000  0.0000 </r>
        <r>  0.0094  0.0313  0.0026  0.0016  0.0000  0.0000  0.0000  0.0000  0.0000 </r>
        <r>  0.0038  0.0095  0.0012  0.0031  0.0000  0.0000  0.0000  0.0000  0.0000 </r>
       </set>
       <set comment="band 35">
        <r>  0.0012  0.0016  0.0007  0.0019  0.0000  0.0000  0.0000  0.0000  0.0000 </r>
        <r>  0.0060  0.0145  0.0015  0.0014  0.0000  0.0000  0.0000  0.0000  0.0000 </r>
        <r>  0.0008  0.0115  0.0005  0.0012  0.0000  0.0000  0.0000  0.0000  0.0000 </r>
        <r>  0.0027  0.0332  0.0013  0.0002  0.0000  0.0000  0.0000  0.0000  0.0000 </r>
        <r>  0.0060  0.0012  0.0052  0.0034  0.0000  0.0000  0.0000  0.0000  0.0000 </r>
        <r>  0.0094  0.0198  0.0055  0.0031  0.0000  0.0000  0.0000  0.0000  0.0000 </r>
        <r>  0.0003  0.0281  0.0008  0.0007  0.0000  0.0000  0.0000  0.0000  0.0000 </r>
        <r>  0.0037  0.0467  0.0011  0.0005  0.0000  0.0000  0.0000  0.0000  0.0000 </r>
        <r>  0.0082  0.0025  0.0045  0.0036  0.0000  0.0000  0.0000  0.0000  0.0000 </r>
        <r>  0.0101  0.0242  0.0053  0.0025  0.0000  0.0000  0.0000  0.0000  0.0000 </r>
        <r>  0.0014  0.0271  0.0000  0.0007  0.0000  0.0000  0.0000  0.0000  0.0000 </r>
        <r>  0.0062  0.0401  0.0008  0.0001  0.0000  0.0000  0.0000  0.0000  0.0000 </r>
       </set>
       <set comment="band 36">
        <r>  0.0062  0.0401  0.0008  0.0001  0.0000  0.0000  0.0000  0.0000  0.0000 </r>
        <r>  0.0014  0.0271  0.0000  0.0007  0.0000  0.0000  0.0000  0.0000  0.0000 </r>
        <r>  0.0101  0.0242  0.0053  0.0025  0.0000  0.0000  0.0000  0.0000  0.0000 </r>
        <r>  0.0082  0.0025  0.0045  0.0036  0.0000  0.0000  0.0000  0.0000  0.0000 </r>
        <r>  0.0037  0.0467  0.0011  0.0005  0.0000  0.0000  0.0000  0.0000  0.0000 </r>
        <r>  0.0003  0.0281  0.0008  0.0007  0.0000  0.0000  0.0000  0.0000  0.0000 </r>
        <r>  0.0094  0.0198  0.0055  0.0031  0.0000  0.0000  0.0000  0.0000  0.0000 </r>
        <r>  0.0060  0.0012  0.0052  0.0034  0.0000  0.0000  0.0000  0.0000  0.0000 </r>
        <r>  0.0027  0.0332  0.0013  0.0002  0.0000  0.0000  0.0000  0.0000  0.0000 </r>
        <r>  0.0008  0.0115  0.0005  0.0012  0.0000  0.0000  0.0000  0.0000  0.0000 </r>
        <r>  0.0060  0.0145  0.0015  0.0014  0.0000  0.0000  0.0000  0.0000  0.0000 </r>
        <r>  0.0012  0.0016  0.0007  0.0019  0.0000  0.0000  0.0000  0.0000  0.0000 </r>
       </set>
       <set comment="band 37">
        <r>  0.0004  0.0006  0.0041  0.0041  0.0000  0.0000  0.0000  0.0000  0.0000 </r>
        <r>  0.0006  0.0002  0.0092  0.0010  0.0000  0.0000  0.0000  0.0000  0.0000 </r>
        <r>  0.0007  0.0000  0.0138  0.0084  0.0000  0.0000  0.0000  0.0000  0.0000 </r>
        <r>  0.0007  0.0001  0.0236  0.0050  0.0000  0.0000  0.0000  0.0000  0.0000 </r>
        <r>  0.0038  0.0021  0.0713  0.0019  0.0000  0.0000  0.0000  0.0000  0.0000 </r>
        <r>  0.0008  0.0002  0.0059  0.0317  0.0000  0.0000  0.0000  0.0000  0.0000 </r>
        <r>  0.0036  0.0018  0.0874  0.0074  0.0000  0.0000  0.0000  0.0000  0.0000 </r>
        <r>  0.0002  0.0002  0.0224  0.0376  0.0000  0.0000  0.0000  0.0000  0.0000 </r>
        <r>  0.0009  0.0000  0.0109  0.0022  0.0000  0.0000  0.0000  0.0000  0.0000 </r>
        <r>  0.0001  0.0000  0.0077  0.0045  0.0000  0.0000  0.0000  0.0000  0.0000 </r>
        <r>  0.0004  0.0008  0.0074  0.0002  0.0000  0.0000  0.0000  0.0000  0.0000 </r>
        <r>  0.0001  0.0001  0.0002  0.0021  0.0000  0.0000  0.0000  0.0000  0.0000 </r>
       </set>
       <set comment="band 38">
        <r>  0.0000  0.0002  0.0024  0.0015  0.0000  0.0000  0.0000  0.0000  0.0000 </r>
        <r>  0.0001  0.0005  0.0055  0.0011  0.0000  0.0000  0.0000  0.0000  0.0000 </r>
        <r>  0.0000  0.0002  0.0012  0.0013  0.0000  0.0000  0.0000  0.0000  0.0000 </r>
        <r>  0.0007  0.0000  0.0028  0.0004  0.0000  0.0000  0.0000  0.0000  0.0000 </r>
        <r>  0.0002  0.0003  0.0148  0.0380  0.0000  0.0000  0.0000  0.0000  0.0000 </r>
        <r>  0.0040  0.0019  0.0862  0.0045  0.0000  0.0000  0.0000  0.0000  0.0000 </r>
        <r>  0.0007  0.0000  0.0114  0.0364  0.0000  0.0000  0.0000  0.0000  0.0000 </r>
        <r>  0.0035  0.0022  0.0797  0.0044  0.0000  0.0000  0.0000  0.0000  0.0000 </r>
        <r>  0.0014  0.0002  0.0322  0.0016  0.0000  0.0000  0.0000  0.0000  0.0000 </r>
        <r>  0.0003  0.0002  0.0055  0.0127  0.0000  0.0000  0.0000  0.0000  0.0000 </r>
        <r>  0.0009  0.0003  0.0234  0.0010  0.0000  0.0000  0.0000  0.0000  0.0000 </r>
        <r>  0.0001  0.0003  0.0025  0.0106  0.0000  0.0000  0.0000  0.0000  0.0000 </r>
       </set>
       <set comment="band 39">
        <r>  0.0009  0.0002  0.0090  0.0019  0.0000  0.0000  0.0000  0.0000  0.0000 </r>
        <r>  0.0005  0.0002  0.0033  0.0052  0.0000  0.0000  0.0000  0.0000  0.0000 </r>
        <r>  0.0003  0.0008  0.0182  0.0048  0.0000  0.0000  0.0000  0.0000  0.0000 </r>
        <r>  0.0001  0.0003  0.0120  0.0084  0.0000  0.0000  0.0000  0.0000  0.0000 </r>
        <r>  0.0003  0.0001  0.0240  0.0109  0.0000  0.0000  0.0000  0.0000  0.0000 </r>
        <r>  0.0003  0.0000  0.0191  0.0129  0.0000  0.0000  0.0000  0.0000  0.0000 </r>
        <r>  0.0007  0.0004  0.0125  0.0042  0.0000  0.0000  0.0000  0.0000  0.0000 </r>
        <r>  0.0006  0.0006  0.0090  0.0064  0.0000  0.0000  0.0000  0.0000  0.0000 </r>
        <r>  0.0006  0.0012  0.0641  0.0296  0.0000  0.0000  0.0000  0.0000  0.0000 </r>
        <r>  0.0008  0.0011  0.0710  0.0271  0.0000  0.0000  0.0000  0.0000  0.0000 </r>
        <r>  0.0029  0.0008  0.0152  0.0114  0.0000  0.0000  0.0000  0.0000  0.0000 </r>
        <r>  0.0030  0.0009  0.0207  0.0088  0.0000  0.0000  0.0000  0.0000  0.0000 </r>
       </set>
       <set comment="band 40">
        <r>  0.0033  0.0010  0.0472  0.0049  0.0000  0.0000  0.0000  0.0000  0.0000 </r>
        <r>  0.0017  0.0004  0.0093  0.0238  0.0000  0.0000  0.0000  0.0000  0.0000 </r>
        <r>  0.0018  0.0016  0.0802  0.0152  0.0000  0.0000  0.0000  0.0000  0.0000 </r>
        <r>  0.0004  0.0006  0.0370  0.0345  0.0000  0.0000  0.0000  0.0000  0.0000 </r>
        <r>  0.0003  0.0008  0.0125  0.0046  0.0000  0.0000  0.0000  0.0000  0.0000 </r>
        <r>  0.0005  0.0001  0.0083  0.0055  0.0000  0.0000  0.0000  0.0000  0.0000 </r>
        <r>  0.0006  0.0000  0.0151  0.0077  0.0000  0.0000  0.0000  0.0000  0.0000 </r>
        <r>  0.0001  0.0002  0.0143  0.0094  0.0000  0.0000  0.0000  0.0000  0.0000 </r>
        <r>  0.0002  0.0001  0.0014  0.0116  0.0000  0.0000  0.0000  0.0000  0.0000 </r>
        <r>  0.0010  0.0011  0.0235  0.0002  0.0000  0.0000  0.0000  0.0000  0.0000 </r>
        <r>  0.0000  0.0000  0.0041  0.0125  0.0000  0.0000  0.0000  0.0000  0.0000 </r>
        <r>  0.0012  0.0004  0.0249  0.0016  0.0000  0.0000  0.0000  0.0000  0.0000 </r>
       </set>
      </set>
     </set>
    </set>
   </array>
  </projected>
 </calculation>
 <structure name="finalpos" >
  <crystal>
   <varray name="basis" >
    <v>       3.34288600       0.00000000       0.00000000 </v>
    <v>       0.00000000      32.60240900       0.00000000 </v>
    <v>       0.00000000       0.00000000       4.37483100 </v>
   </varray>
   <i name="volume">    476.79592902 </i>
   <varray name="rec_basis" >
    <v>       0.29914272       0.00000000       0.00000000 </v>
    <v>       0.00000000       0.03067258       0.00000000 </v>
    <v>       0.00000000       0.00000000       0.22858026 </v>
   </varray>
  </crystal>
  <varray name="positions" >
   <v>       0.00000000       0.30672600       0.91892400 </v>
   <v>       0.50000000       0.30672600       0.58107600 </v>
   <v>       0.00000000       0.37246700       0.08107600 </v>
   <v>       0.50000000       0.37246700       0.41892400 </v>
   <v>       0.50000000       0.46712900       0.91892400 </v>
   <v>       0.00000000       0.46712900       0.58107600 </v>
   <v>       0.50000000       0.53287100       0.08107600 </v>
   <v>       0.00000000       0.53287100       0.41892400 </v>
   <v>       0.00000000       0.62753300       0.91892400 </v>
   <v>       0.50000000       0.62753300       0.58107600 </v>
   <v>       0.00000000       0.69327400       0.08107600 </v>
   <v>       0.50000000       0.69327400       0.41892400 </v>
  </varray>
 </structure>
</modeling>
