       N       E                     dE             d eps       ncg     rms          rms(c)
DAV:   1     0.319924673560E+03    0.31992E+03   -0.18079E+04   960   0.861E+02
DAV:   2    -0.282189881578E+02   -0.34814E+03   -0.33827E+03  1336   0.196E+02
DAV:   3    -0.634746182250E+02   -0.35256E+02   -0.34644E+02  1168   0.653E+01
DAV:   4    -0.647719056581E+02   -0.12973E+01   -0.12909E+01  1440   0.138E+01
DAV:   5    -0.648021562305E+02   -0.30251E-01   -0.30234E-01  1400   0.205E+00    0.175E+01
DAV:   6    -0.644772594452E+02    0.32490E+00   -0.19609E-01  1256   0.163E+00    0.104E+01
DAV:   7    -0.643292195288E+02    0.14804E+00   -0.35963E-01  1192   0.226E+00    0.440E-01
DAV:   8    -0.643289793031E+02    0.24023E-03   -0.31661E-02  1264   0.722E-01    0.232E-01
DAV:   9    -0.643289414959E+02    0.37807E-04   -0.16538E-03  1392   0.166E-01    0.198E-01
DAV:  10    -0.643287164793E+02    0.22502E-03   -0.36747E-04  1200   0.740E-02    0.147E-01
DAV:  11    -0.643284924823E+02    0.22400E-03   -0.39246E-04  1232   0.734E-02    0.490E-02
DAV:  12    -0.643285808967E+02   -0.88414E-04   -0.69006E-05  1216   0.321E-02    0.153E-02
DAV:  13    -0.643287608445E+02   -0.17995E-03   -0.75689E-05  1104   0.314E-02    0.410E-02
DAV:  14    -0.643288813436E+02   -0.12050E-03   -0.18202E-05   952   0.151E-02    0.342E-02
DAV:  15    -0.643289275354E+02   -0.46192E-04   -0.23579E-06   760   0.698E-03    0.196E-02
DAV:  16    -0.643291611698E+02   -0.23363E-03   -0.27001E-05   936   0.145E-02    0.232E-02
DAV:  17    -0.643291774958E+02   -0.16326E-04   -0.16465E-06   816   0.542E-03    0.148E-02
DAV:  18    -0.643291920713E+02   -0.14575E-04   -0.54406E-07   720   0.332E-03    0.797E-03
DAV:  19    -0.643292493815E+02   -0.57310E-04   -0.17186E-06   816   0.426E-03    0.201E-03
DAV:  20    -0.643292554003E+02   -0.60189E-05   -0.26845E-07   744   0.212E-03
   1 F= -.66503195E+02 E0= -.66503195E+02  d E =-.705104E-07
