<?xml version="1.0" encoding="ISO-8859-1"?>
<modeling>
 <generator>
  <i name="program" type="string">vasp </i>
  <i name="version" type="string">5.4.4.18Apr17-6-g9f103f2a35  </i>
  <i name="subversion" type="string">(build Jun 20 2017 18:00:50) complex            parallel </i>
  <i name="platform" type="string">LinuxIFC </i>
  <i name="date" type="string">2018 03 16 </i>
  <i name="time" type="string">15:57:01 </i>
 </generator>
 <incar>
  <i type="string" name="SYSTEM"> Generic Input</i>
  <i type="int" name="ISTART">     1</i>
  <i type="string" name="PREC">normal    ! precision level</i>
  <i type="int" name="IALGO">    53</i>
  <i type="string" name="ALGO"> Normal    ! SCF minimisation algorithm</i>
  <i type="int" name="INIWAV">     1</i>
  <i type="int" name="NELM">   200</i>
  <i type="int" name="NELMIN">     2</i>
  <i type="int" name="IBRION">     2</i>
  <i name="EDIFF">      0.00001000</i>
  <i name="EDIFFG">     -0.02000000</i>
  <i type="int" name="NSW">     0</i>
  <i type="int" name="ISIF">     3</i>
  <i type="int" name="IWAVPR">    11</i>
  <i type="int" name="NBLOCK">     1</i>
  <i type="int" name="KBLOCK">    40</i>
  <i name="ENCUT">    400.00000000</i>
  <i type="int" name="NEDOS">  2000</i>
  <i type="int" name="ISMEAR">     0</i>
  <i name="SIGMA">      0.01000000</i>
  <i type="int" name="NWRITE">     2</i>
  <i type="logical" name="LVHAR"> T  </i>
  <i type="int" name="LORBIT">    11</i>
  <i type="logical" name="LASPH"> T  </i>
  <i type="int" name="ICORELEVEL">     1</i>
  <v type="int" name="KPOINT_BSE">    -1     0     0     0</v>
  <i type="int" name="NELM">   200</i>
  <i type="string" name="GGA"> PE        ! PBEsol exchange-correlation</i>
  <i type="logical" name="LASPH"> T  </i>
 </incar>
 <structure name="primitive_cell" >
  <crystal>
   <varray name="basis" >
    <v>       3.34288600       0.00000000       0.00000000 </v>
    <v>       0.00000000      32.60240900       0.00000000 </v>
    <v>       0.00000000       0.00000000       4.37483100 </v>
   </varray>
   <i name="volume">    476.79592902 </i>
   <varray name="rec_basis" >
    <v>       0.29914272       0.00000000       0.00000000 </v>
    <v>       0.00000000       0.03067258       0.00000000 </v>
    <v>       0.00000000       0.00000000       0.22858026 </v>
   </varray>
  </crystal>
  <varray name="positions" >
   <v>       0.00000000       0.30672600      -0.08107600 </v>
   <v>      -0.50000000       0.30672600      -0.41892400 </v>
   <v>       0.00000000       0.37246700       0.08107600 </v>
   <v>      -0.50000000       0.37246700       0.41892400 </v>
   <v>       0.00000000       0.46712900      -0.41892400 </v>
   <v>      -0.50000000       0.46712900      -0.08107600 </v>
   <v>      -0.50000000      -0.46712900       0.08107600 </v>
   <v>       0.00000000      -0.46712900       0.41892400 </v>
   <v>       0.00000000      -0.37246700      -0.08107600 </v>
   <v>      -0.50000000      -0.37246700      -0.41892400 </v>
   <v>       0.00000000      -0.30672600       0.08107600 </v>
   <v>      -0.50000000      -0.30672600       0.41892400 </v>
  </varray>
 </structure>
 <varray name="primitive_index" >
  <v type="int" >        1 </v>
  <v type="int" >        2 </v>
  <v type="int" >        3 </v>
  <v type="int" >        4 </v>
  <v type="int" >        6 </v>
  <v type="int" >        5 </v>
  <v type="int" >        7 </v>
  <v type="int" >        8 </v>
  <v type="int" >        9 </v>
  <v type="int" >       10 </v>
  <v type="int" >       11 </v>
  <v type="int" >       12 </v>
 </varray>
 <kpoints>
  <generation param="Gamma">
   <v type="int" name="divisions">       7        1        5 </v>
   <v name="usershift">      0.00000000       0.00000000       0.00000000 </v>
   <v name="genvec1">      0.14285714       0.00000000       0.00000000 </v>
   <v name="genvec2">      0.00000000       1.00000000       0.00000000 </v>
   <v name="genvec3">      0.00000000       0.00000000       0.20000000 </v>
   <v name="shift">      0.00000000       0.00000000       0.00000000 </v>
  </generation>
  <varray name="kpointlist" >
   <v>       0.00000000       0.00000000       0.00000000 </v>
   <v>       0.14285714       0.00000000       0.00000000 </v>
   <v>       0.28571429       0.00000000       0.00000000 </v>
   <v>       0.42857143       0.00000000       0.00000000 </v>
   <v>       0.00000000       0.00000000       0.20000000 </v>
   <v>       0.14285714       0.00000000       0.20000000 </v>
   <v>       0.28571429       0.00000000       0.20000000 </v>
   <v>       0.42857143       0.00000000       0.20000000 </v>
   <v>       0.00000000       0.00000000       0.40000000 </v>
   <v>       0.14285714       0.00000000       0.40000000 </v>
   <v>       0.28571429       0.00000000       0.40000000 </v>
   <v>       0.42857143       0.00000000       0.40000000 </v>
  </varray>
  <varray name="weights" >
   <v>       0.02857143 </v>
   <v>       0.05714286 </v>
   <v>       0.05714286 </v>
   <v>       0.05714286 </v>
   <v>       0.05714286 </v>
   <v>       0.11428571 </v>
   <v>       0.11428571 </v>
   <v>       0.11428571 </v>
   <v>       0.05714286 </v>
   <v>       0.11428571 </v>
   <v>       0.11428571 </v>
   <v>       0.11428571 </v>
  </varray>
 </kpoints>
 <parameters>
  <separator name="general" >
   <i type="string" name="SYSTEM">Generic Input</i>
   <i type="logical" name="LCOMPAT"> F  </i>
  </separator>
  <separator name="electronic" >
   <i type="string" name="PREC">normal</i>
   <i name="ENMAX">    400.00000000</i>
   <i name="ENAUG">    342.92400000</i>
   <i name="EDIFF">      0.00001000</i>
   <i type="int" name="IALGO">    38</i>
   <i type="int" name="IWAVPR">    11</i>
   <i type="int" name="NBANDS">    40</i>
   <i name="NELECT">     60.00000000</i>
   <i type="int" name="TURBO">     0</i>
   <i type="int" name="IRESTART">     0</i>
   <i type="int" name="NREBOOT">     0</i>
   <i type="int" name="NMIN">     0</i>
   <i name="EREF">      0.00000000</i>
   <separator name="electronic smearing" >
    <i type="int" name="ISMEAR">     0</i>
    <i name="SIGMA">      0.01000000</i>
    <i name="KSPACING">      0.50000000</i>
    <i type="logical" name="KGAMMA"> T  </i>
   </separator>
   <separator name="electronic projectors" >
    <i type="logical" name="LREAL"> F  </i>
    <v name="ROPT">      0.00000000</v>
    <i type="int" name="LMAXPAW">  -100</i>
    <i type="int" name="LMAXMIX">     2</i>
    <i type="logical" name="NLSPLINE"> F  </i>
   </separator>
   <separator name="electronic startup" >
    <i type="int" name="ISTART">     0</i>
    <i type="int" name="ICHARG">     2</i>
    <i type="int" name="INIWAV">     1</i>
   </separator>
   <separator name="electronic spin" >
    <i type="int" name="ISPIN">     1</i>
    <i type="logical" name="LNONCOLLINEAR"> F  </i>
    <v name="MAGMOM">      1.00000000      1.00000000      1.00000000      1.00000000      1.00000000      1.00000000      1.00000000      1.00000000      1.00000000      1.00000000      1.00000000      1.00000000</v>
    <i name="NUPDOWN">     -1.00000000</i>
    <i type="logical" name="LSORBIT"> F  </i>
    <v name="SAXIS">      0.00000000      0.00000000      1.00000000</v>
    <i type="logical" name="LSPIRAL"> F  </i>
    <v name="QSPIRAL">      0.00000000      0.00000000      0.00000000</v>
    <i type="logical" name="LZEROZ"> F  </i>
   </separator>
   <separator name="electronic exchange-correlation" >
    <i type="logical" name="LASPH"> T  </i>
    <i type="logical" name="LMETAGGA"> F  </i>
   </separator>
   <separator name="electronic convergence" >
    <i type="int" name="NELM">   200</i>
    <i type="int" name="NELMDL">     0</i>
    <i type="int" name="NELMIN">     2</i>
    <i name="ENINI">    400.00000000</i>
    <separator name="electronic convergence detail" >
     <i type="logical" name="LDIAG"> T  </i>
     <i type="logical" name="LSUBROT"> F  </i>
     <i name="WEIMIN">      0.00000000</i>
     <i name="EBREAK">      0.00000006</i>
     <i name="DEPER">      0.30000000</i>
     <i type="int" name="NRMM">     4</i>
     <i name="TIME">      0.40000000</i>
    </separator>
   </separator>
   <separator name="electronic mixer" >
    <i name="AMIX">      0.40000000</i>
    <i name="BMIX">      1.00000000</i>
    <i name="AMIN">      0.10000000</i>
    <i name="AMIX_MAG">      1.60000000</i>
    <i name="BMIX_MAG">      1.00000000</i>
    <separator name="electronic mixer details" >
     <i type="int" name="IMIX">     4</i>
     <i type="logical" name="MIXFIRST"> F  </i>
     <i type="int" name="MAXMIX">   -45</i>
     <i name="WC">    100.00000000</i>
     <i type="int" name="INIMIX">     1</i>
     <i type="int" name="MIXPRE">     1</i>
     <i type="int" name="MREMOVE">     5</i>
    </separator>
   </separator>
   <separator name="electronic dipolcorrection" >
    <i type="logical" name="LDIPOL"> F  </i>
    <i type="logical" name="LMONO"> F  </i>
    <i type="int" name="IDIPOL">     0</i>
    <i name="EPSILON">      1.00000000</i>
    <v name="DIPOL">   -100.00000000   -100.00000000   -100.00000000</v>
    <i name="EFIELD">      0.00000000</i>
   </separator>
  </separator>
  <separator name="grids" >
   <i type="int" name="NGX">    16</i>
   <i type="int" name="NGY">   160</i>
   <i type="int" name="NGZ">    24</i>
   <i type="int" name="NGXF">    32</i>
   <i type="int" name="NGYF">   320</i>
   <i type="int" name="NGZF">    48</i>
   <i type="logical" name="ADDGRID"> F  </i>
  </separator>
  <separator name="ionic" >
   <i type="int" name="NSW">     0</i>
   <i type="int" name="IBRION">    -1</i>
   <i type="int" name="MDALGO">     0</i>
   <i type="int" name="ISIF">     3</i>
   <i name="PSTRESS">      0.00000000</i>
   <i name="EDIFFG">     -0.02000000</i>
   <i type="int" name="NFREE">     1</i>
   <i name="POTIM">      0.50000000</i>
   <i name="SMASS">     -3.00000000</i>
   <i name="SCALEE">      1.00000000</i>
  </separator>
  <separator name="ionic md" >
   <i name="TEBEG">      0.00010000</i>
   <i name="TEEND">      0.00010000</i>
   <i type="int" name="NBLOCK">     1</i>
   <i type="int" name="KBLOCK">     1</i>
   <i type="int" name="NPACO">   256</i>
   <i name="APACO">     16.00000000</i>
  </separator>
  <separator name="symmetry" >
   <i type="int" name="ISYM">     2</i>
   <i name="SYMPREC">      0.00001000</i>
  </separator>
  <separator name="dos" >
   <i type="int" name="LORBIT">    11</i>
   <v name="RWIGS">     -1.00000000</v>
   <i type="int" name="NEDOS">  2000</i>
   <i name="EMIN">     10.00000000</i>
   <i name="EMAX">    -10.00000000</i>
   <i name="EFERMI">      0.00000000</i>
  </separator>
  <separator name="writing" >
   <i type="int" name="NWRITE">     2</i>
   <i type="logical" name="LWAVE"> T  </i>
   <i type="logical" name="LDOWNSAMPLE"> F  </i>
   <i type="logical" name="LCHARG"> T  </i>
   <i type="logical" name="LPARD"> F  </i>
   <i type="logical" name="LVTOT"> F  </i>
   <i type="logical" name="LVHAR"> T  </i>
   <i type="logical" name="LELF"> F  </i>
   <i type="logical" name="LOPTICS"> F  </i>
   <v name="STM">      0.00000000      0.00000000      0.00000000      0.00000000      0.00000000      0.00000000      0.00000000</v>
  </separator>
  <separator name="performance" >
   <i type="int" name="NPAR">     4</i>
   <i type="int" name="NSIM">     4</i>
   <i type="int" name="NBLK">    -1</i>
   <i type="logical" name="LPLANE"> T  </i>
   <i type="logical" name="LSCALAPACK"> T  </i>
   <i type="logical" name="LSCAAWARE"> F  </i>
   <i type="logical" name="LSCALU"> F  </i>
   <i type="logical" name="LASYNC"> F  </i>
   <i type="logical" name="LORBITALREAL"> F  </i>
  </separator>
  <separator name="miscellaneous" >
   <i type="int" name="IDIOT">     3</i>
   <i type="int" name="ISPECIAL">     0</i>
   <i type="logical" name="LMUSIC"> F  </i>
   <v name="POMASS">     30.97400000</v>
   <v name="DARWINR">      0.00000000</v>
   <v name="DARWINV">      1.00000000</v>
   <i type="logical" name="LCORR"> T  </i>
  </separator>
  <i type="logical" name="GGA_COMPAT"> T  </i>
  <i type="logical" name="LBERRY"> F  </i>
  <i type="int" name="ICORELEVEL">     1</i>
  <i type="int" name="CLNT">     1</i>
  <i type="int" name="CLN">     1</i>
  <i type="int" name="CLL">     0</i>
  <i name="CLZ">      0.00000000</i>
  <i type="logical" name="LDAU"> F  </i>
  <i type="int" name="I_CONSTRAINED_M">     0</i>
  <separator name="electronic exchange-correlation" >
   <i type="string" name="GGA">PE</i>
   <i type="int" name="VOSKOWN">     0</i>
   <i type="logical" name="LHFCALC"> F  </i>
   <i type="string" name="PRECFOCK"></i>
   <i type="logical" name="LSYMGRAD"> F  </i>
   <i type="logical" name="LHFONE"> F  </i>
   <i type="logical" name="LRHFCALC"> F  </i>
   <i type="logical" name="LTHOMAS"> F  </i>
   <i type="logical" name="LMODELHF"> F  </i>
   <i name="ENCUT4O">     -1.00000000</i>
   <i type="int" name="EXXOEP">     0</i>
   <i type="int" name="FOURORBIT">     0</i>
   <i name="AEXX">      0.00000000</i>
   <i name="HFALPHA">      0.00000000</i>
   <i name="MCALPHA">      0.00000000</i>
   <i name="ALDAX">      1.00000000</i>
   <i name="AGGAX">      1.00000000</i>
   <i name="ALDAC">      1.00000000</i>
   <i name="AGGAC">      1.00000000</i>
   <i type="int" name="NKREDX">     1</i>
   <i type="int" name="NKREDY">     1</i>
   <i type="int" name="NKREDZ">     1</i>
   <i type="logical" name="SHIFTRED"> F  </i>
   <i type="logical" name="ODDONLY"> F  </i>
   <i type="logical" name="EVENONLY"> F  </i>
   <i type="int" name="LMAXFOCK">     0</i>
   <i type="int" name="NMAXFOCKAE">     0</i>
   <i type="logical" name="LFOCKAEDFT"> F  </i>
   <i name="HFSCREEN">      0.00000000</i>
   <i name="HFSCREENC">      0.00000000</i>
   <i type="int" name="NBANDSGWLOW">     0</i>
  </separator>
  <separator name="vdW DFT" >
   <i type="logical" name="LUSE_VDW"> F  </i>
   <i name="Zab_VDW">     -0.84910000</i>
   <i name="PARAM1">      0.12340000</i>
   <i name="PARAM2">      1.00000000</i>
   <i name="PARAM3">      0.00000000</i>
  </separator>
  <separator name="model GW" >
   <i type="int" name="MODEL_GW">     0</i>
   <i name="MODEL_EPS0">     23.83979645</i>
   <i name="MODEL_ALPHA">      1.00000000</i>
  </separator>
  <separator name="linear response parameters" >
   <i type="logical" name="LEPSILON"> F  </i>
   <i type="logical" name="LRPA"> F  </i>
   <i type="logical" name="LNABLA"> F  </i>
   <i type="logical" name="LVEL"> F  </i>
   <i type="int" name="KINTER">     0</i>
   <i name="CSHIFT">      0.10000000</i>
   <i name="OMEGAMAX">     -1.00000000</i>
   <i name="DEG_THRESHOLD">      0.00200000</i>
   <i name="RTIME">     -0.10000000</i>
   <i name="WPLASMAI">      0.00000000</i>
   <v name="DFIELD">      0.00000000      0.00000000      0.00000000</v>
   <v name="WPLASMA">      0.00000000      0.00000000      0.00000000      0.00000000      0.00000000      0.00000000      0.00000000      0.00000000      0.00000000</v>
  </separator>
  <separator name="orbital magnetization" >
   <i type="logical" name="NUCIND"> F  </i>
   <v name="MAGPOS">      0.00000000      0.00000000      0.00000000</v>
   <i type="logical" name="LNICSALL"> T  </i>
   <i type="logical" name="ORBITALMAG"> F  </i>
   <i type="logical" name="LMAGBLOCH"> F  </i>
   <i type="logical" name="LCHIMAG"> F  </i>
   <i type="logical" name="LGAUGE"> T  </i>
   <i type="int" name="MAGATOM">     0</i>
   <v name="MAGDIPOL">      0.00000000      0.00000000      0.00000000</v>
   <v name="AVECCONST">      0.00000000      0.00000000      0.00000000</v>
  </separator>
  <separator name="response functions" >
   <i type="logical" name="LADDER"> F  </i>
   <i type="logical" name="LRPAFORCE"> F  </i>
   <i type="logical" name="LFXC"> F  </i>
   <i type="logical" name="LHARTREE"> T  </i>
   <i type="int" name="IBSE">     0</i>
   <v type="int" name="KPOINT">    -1     0     0     0</v>
   <i type="logical" name="LTCTE"> F  </i>
   <i type="logical" name="LTETE"> F  </i>
   <i type="logical" name="LTRIPLET"> F  </i>
   <i type="logical" name="LFXCEPS"> F  </i>
   <i type="logical" name="LFXHEG"> F  </i>
   <i type="int" name="NATURALO">     2</i>
   <i type="logical" name="L2ORDER"> F  </i>
   <i type="logical" name="LMP2LT"> F  </i>
   <i type="logical" name="LUSEW"> F  </i>
   <i name="ENCUTGW">     -2.00000000</i>
   <i name="ENCUTGWSOFT">     -2.00000000</i>
   <i name="ENCUTLF">     -1.00000000</i>
   <i type="int" name="LMAXMP2">    -1</i>
   <i name="SCISSOR">      0.00000000</i>
   <i type="int" name="NOMEGA">     0</i>
   <i type="int" name="NOMEGAR">     0</i>
   <i type="int" name="NBANDSGW">    -1</i>
   <i type="int" name="NBANDSO">    -1</i>
   <i type="int" name="NBANDSV">    -1</i>
   <i type="int" name="NELM">   200</i>
   <i type="int" name="NELMHF">     1</i>
   <i type="int" name="DIM">     3</i>
   <i type="int" name="ANTIRES">     0</i>
   <i name="OMEGAMAX">    -30.00000000</i>
   <i name="OMEGAMIN">    -30.00000000</i>
   <i name="OMEGATL">   -200.00000000</i>
   <i type="int" name="OMEGAGRID">   140</i>
   <i name="CSHIFT">     -0.10000000</i>
   <i type="logical" name="SELFENERGY"> F  </i>
   <i type="logical" name="LSPECTRAL"> F  </i>
   <i type="logical" name="LSPECTRALGW"> F  </i>
   <i type="logical" name="LSINGLES"> F  </i>
   <i type="logical" name="LFERMIGW"> F  </i>
   <i type="logical" name="ODDONLYGW"> F  </i>
   <i type="logical" name="EVENONLYGW"> F  </i>
   <i type="int" name="NKREDLFX">     1</i>
   <i type="int" name="NKREDLFY">     1</i>
   <i type="int" name="NKREDLFZ">     1</i>
   <i type="int" name="MAXMEM">  2800</i>
   <i type="int" name="TELESCOPE">     0</i>
   <i type="int" name="TAUPAR">     1</i>
   <i type="int" name="OMEGAPAR">    -1</i>
   <i name="LAMBDA">      1.00000000</i>
  </separator>
  <separator name="External order field" >
   <i name="OFIELD_KAPPA">      0.00000000</i>
   <v name="OFIELD_K">      0.00000000      0.00000000      0.00000000</v>
   <i name="OFIELD_Q6_NEAR">      0.00000000</i>
   <i name="OFIELD_Q6_FAR">      0.00000000</i>
   <i name="OFIELD_A">      0.00000000</i>
  </separator>
 </parameters>
 <atominfo>
  <atoms>      12 </atoms>
  <types>       1 </types>
  <array name="atoms" >
   <dimension dim="1">ion</dimension>
   <field type="string">element</field>
   <field type="int">atomtype</field>
   <set>
    <rc><c>P </c><c>   1</c></rc>
    <rc><c>P </c><c>   1</c></rc>
    <rc><c>P </c><c>   1</c></rc>
    <rc><c>P </c><c>   1</c></rc>
    <rc><c>P </c><c>   1</c></rc>
    <rc><c>P </c><c>   1</c></rc>
    <rc><c>P </c><c>   1</c></rc>
    <rc><c>P </c><c>   1</c></rc>
    <rc><c>P </c><c>   1</c></rc>
    <rc><c>P </c><c>   1</c></rc>
    <rc><c>P </c><c>   1</c></rc>
    <rc><c>P </c><c>   1</c></rc>
   </set>
  </array>
  <array name="atomtypes" >
   <dimension dim="1">type</dimension>
   <field type="int">atomspertype</field>
   <field type="string">element</field>
   <field>mass</field>
   <field>valence</field>
   <field type="string">pseudopotential</field>
   <set>
    <rc><c>  12</c><c>P </c><c>     30.97400000</c><c>      5.00000000</c><c>  PAW_PBE P 06Sep2000                   </c></rc>
   </set>
  </array>
 </atominfo>
 <structure name="initialpos" >
  <crystal>
   <varray name="basis" >
    <v>       3.34288600       0.00000000       0.00000000 </v>
    <v>       0.00000000      32.60240900       0.00000000 </v>
    <v>       0.00000000       0.00000000       4.37483100 </v>
   </varray>
   <i name="volume">    476.79592902 </i>
   <varray name="rec_basis" >
    <v>       0.29914272       0.00000000       0.00000000 </v>
    <v>       0.00000000       0.03067258       0.00000000 </v>
    <v>       0.00000000       0.00000000       0.22858026 </v>
   </varray>
  </crystal>
  <varray name="positions" >
   <v>       0.00000000       0.30672600       0.91892400 </v>
   <v>       0.50000000       0.30672600       0.58107600 </v>
   <v>       0.00000000       0.37246700       0.08107600 </v>
   <v>       0.50000000       0.37246700       0.41892400 </v>
   <v>       0.50000000       0.46712900       0.91892400 </v>
   <v>       0.00000000       0.46712900       0.58107600 </v>
   <v>       0.50000000       0.53287100       0.08107600 </v>
   <v>       0.00000000       0.53287100       0.41892400 </v>
   <v>       0.00000000       0.62753300       0.91892400 </v>
   <v>       0.50000000       0.62753300       0.58107600 </v>
   <v>       0.00000000       0.69327400       0.08107600 </v>
   <v>       0.50000000       0.69327400       0.41892400 </v>
  </varray>
 </structure>
 <calculation>
  <scstep>
   <time name="dav">    0.49    0.50</time>
   <time name="total">    0.58    0.60</time>
   <energy>
    <i name="alphaZ">     30.28014394 </i>
    <i name="ewald">  14973.24208224 </i>
    <i name="hartreedc"> -16928.93300519 </i>
    <i name="XCdc">     40.33410248 </i>
    <i name="pawpsdc">   1677.12035881 </i>
    <i name="pawaedc">  -1579.18296132 </i>
    <i name="eentropy">     -0.00064610 </i>
    <i name="bandstr">     13.44107861 </i>
    <i name="atom">   2112.48864025 </i>
    <i name="e_fr_energy">    338.78979372 </i>
    <i name="e_wo_entrp">    338.79043982 </i>
    <i name="e_0_energy">    338.79011677 </i>
   </energy>
  </scstep>
  <scstep>
   <time name="dav">    0.61    0.61</time>
   <time name="total">    0.61    0.61</time>
   <energy>
    <i name="e_fr_energy">    -27.09194846 </i>
    <i name="e_wo_entrp">    -27.09131150 </i>
    <i name="e_0_energy">    -27.09162998 </i>
   </energy>
  </scstep>
  <scstep>
   <time name="dav">    0.54    0.54</time>
   <time name="total">    0.54    0.54</time>
   <energy>
    <i name="e_fr_energy">    -63.43862688 </i>
    <i name="e_wo_entrp">    -63.43862688 </i>
    <i name="e_0_energy">    -63.43862688 </i>
   </energy>
  </scstep>
  <scstep>
   <time name="dav">    0.64    0.65</time>
   <time name="total">    0.64    0.65</time>
   <energy>
    <i name="e_fr_energy">    -64.79610604 </i>
    <i name="e_wo_entrp">    -64.79610604 </i>
    <i name="e_0_energy">    -64.79610604 </i>
   </energy>
  </scstep>
  <scstep>
   <time name="dav">    0.64    0.64</time>
   <time name="total">    0.67    0.67</time>
   <energy>
    <i name="e_fr_energy">    -64.83185848 </i>
    <i name="e_wo_entrp">    -64.83185848 </i>
    <i name="e_0_energy">    -64.83185848 </i>
   </energy>
  </scstep>
  <scstep>
   <time name="dav">    0.57    0.57</time>
   <time name="total">    0.68    0.68</time>
   <energy>
    <i name="e_fr_energy">    -64.50853353 </i>
    <i name="e_wo_entrp">    -64.50853353 </i>
    <i name="e_0_energy">    -64.50853353 </i>
   </energy>
  </scstep>
  <scstep>
   <time name="dav">    0.57    0.57</time>
   <time name="total">    0.67    0.68</time>
   <energy>
    <i name="e_fr_energy">    -64.36081624 </i>
    <i name="e_wo_entrp">    -64.36081611 </i>
    <i name="e_0_energy">    -64.36081618 </i>
   </energy>
  </scstep>
  <scstep>
   <time name="dav">    0.59    0.59</time>
   <time name="total">    0.69    0.70</time>
   <energy>
    <i name="e_fr_energy">    -64.36057150 </i>
    <i name="e_wo_entrp">    -64.36057147 </i>
    <i name="e_0_energy">    -64.36057148 </i>
   </energy>
  </scstep>
  <scstep>
   <time name="dav">    0.64    0.64</time>
   <time name="total">    0.75    0.75</time>
   <energy>
    <i name="e_fr_energy">    -64.36054863 </i>
    <i name="e_wo_entrp">    -64.36054860 </i>
    <i name="e_0_energy">    -64.36054862 </i>
   </energy>
  </scstep>
  <scstep>
   <time name="dav">    0.55    0.56</time>
   <time name="total">    0.66    0.66</time>
   <energy>
    <i name="e_fr_energy">    -64.36032367 </i>
    <i name="e_wo_entrp">    -64.36032365 </i>
    <i name="e_0_energy">    -64.36032366 </i>
   </energy>
  </scstep>
  <scstep>
   <time name="dav">    0.56    0.56</time>
   <time name="total">    0.67    0.67</time>
   <energy>
    <i name="e_fr_energy">    -64.36008505 </i>
    <i name="e_wo_entrp">    -64.36008502 </i>
    <i name="e_0_energy">    -64.36008504 </i>
   </energy>
  </scstep>
  <scstep>
   <time name="dav">    0.55    0.55</time>
   <time name="total">    0.66    0.66</time>
   <energy>
    <i name="e_fr_energy">    -64.36015759 </i>
    <i name="e_wo_entrp">    -64.36015757 </i>
    <i name="e_0_energy">    -64.36015758 </i>
   </energy>
  </scstep>
  <scstep>
   <time name="dav">    0.54    0.54</time>
   <time name="total">    0.65    0.65</time>
   <energy>
    <i name="e_fr_energy">    -64.36036774 </i>
    <i name="e_wo_entrp">    -64.36036771 </i>
    <i name="e_0_energy">    -64.36036772 </i>
   </energy>
  </scstep>
  <scstep>
   <time name="dav">    0.50    0.50</time>
   <time name="total">    0.60    0.61</time>
   <energy>
    <i name="e_fr_energy">    -64.36051718 </i>
    <i name="e_wo_entrp">    -64.36051715 </i>
    <i name="e_0_energy">    -64.36051716 </i>
   </energy>
  </scstep>
  <scstep>
   <time name="dav">    0.41    0.42</time>
   <time name="total">    0.52    0.52</time>
   <energy>
    <i name="e_fr_energy">    -64.36055077 </i>
    <i name="e_wo_entrp">    -64.36055073 </i>
    <i name="e_0_energy">    -64.36055075 </i>
   </energy>
  </scstep>
  <scstep>
   <time name="dav">    0.48    0.49</time>
   <time name="total">    0.59    0.59</time>
   <energy>
    <i name="e_fr_energy">    -64.36079166 </i>
    <i name="e_wo_entrp">    -64.36079162 </i>
    <i name="e_0_energy">    -64.36079164 </i>
   </energy>
  </scstep>
  <scstep>
   <time name="dav">    0.46    0.46</time>
   <time name="total">    0.56    0.56</time>
   <energy>
    <i name="e_fr_energy">    -64.36081887 </i>
    <i name="e_wo_entrp">    -64.36081883 </i>
    <i name="e_0_energy">    -64.36081885 </i>
   </energy>
  </scstep>
  <scstep>
   <time name="dav">    0.42    0.42</time>
   <time name="total">    0.53    0.53</time>
   <energy>
    <i name="e_fr_energy">    -64.36083241 </i>
    <i name="e_wo_entrp">    -64.36083237 </i>
    <i name="e_0_energy">    -64.36083239 </i>
   </energy>
  </scstep>
  <scstep>
   <time name="dav">    0.44    0.44</time>
   <time name="total">    0.55    0.55</time>
   <energy>
    <i name="e_fr_energy">    -64.36087954 </i>
    <i name="e_wo_entrp">    -64.36087951 </i>
    <i name="e_0_energy">    -64.36087953 </i>
   </energy>
  </scstep>
  <scstep>
   <time name="dav">    0.41    0.41</time>
   <time name="total">    0.57    0.57</time>
   <energy>
    <i name="alphaZ">     30.28014394 </i>
    <i name="ewald">  14973.24208224 </i>
    <i name="hartreedc"> -16968.08502554 </i>
    <i name="XCdc">     43.13016395 </i>
    <i name="pawpsdc">   6281.78036650 </i>
    <i name="pawaedc">  -6184.75914880 </i>
    <i name="eentropy">     -0.00000004 </i>
    <i name="bandstr">   -352.43810677 </i>
    <i name="atom">   2112.48864025 </i>
    <i name="e_fr_energy">    -64.36088428 </i>
    <i name="e_wo_entrp">    -64.36088424 </i>
    <i name="e_0_energy">    -64.36088426 </i>
   </energy>
  </scstep>
  <structure>
   <crystal>
    <varray name="basis" >
     <v>       3.34288600       0.00000000       0.00000000 </v>
     <v>       0.00000000      32.60240900       0.00000000 </v>
     <v>       0.00000000       0.00000000       4.37483100 </v>
    </varray>
    <i name="volume">    476.79592902 </i>
    <varray name="rec_basis" >
     <v>       0.29914272       0.00000000       0.00000000 </v>
     <v>       0.00000000       0.03067258       0.00000000 </v>
     <v>       0.00000000       0.00000000       0.22858026 </v>
    </varray>
   </crystal>
   <varray name="positions" >
    <v>       0.00000000       0.30672600       0.91892400 </v>
    <v>       0.50000000       0.30672600       0.58107600 </v>
    <v>       0.00000000       0.37246700       0.08107600 </v>
    <v>       0.50000000       0.37246700       0.41892400 </v>
    <v>       0.50000000       0.46712900       0.91892400 </v>
    <v>       0.00000000       0.46712900       0.58107600 </v>
    <v>       0.50000000       0.53287100       0.08107600 </v>
    <v>       0.00000000       0.53287100       0.41892400 </v>
    <v>       0.00000000       0.62753300       0.91892400 </v>
    <v>       0.50000000       0.62753300       0.58107600 </v>
    <v>       0.00000000       0.69327400       0.08107600 </v>
    <v>       0.50000000       0.69327400       0.41892400 </v>
   </varray>
  </structure>
  <varray name="forces" >
   <v>      -0.00000000       0.07382559      -0.05017867 </v>
   <v>       0.00000000       0.07382559       0.05017867 </v>
   <v>       0.00000000      -0.07151923      -0.00916012 </v>
   <v>       0.00000000      -0.07151923       0.00916012 </v>
   <v>       0.00000000       0.03409752      -0.00772129 </v>
   <v>      -0.00000000       0.03409752       0.00772129 </v>
   <v>      -0.00000000      -0.03409752       0.00772129 </v>
   <v>       0.00000000      -0.03409752      -0.00772129 </v>
   <v>       0.00000000       0.07151923       0.00916012 </v>
   <v>       0.00000000       0.07151923      -0.00916012 </v>
   <v>       0.00000000      -0.07382559       0.05017867 </v>
   <v>       0.00000000      -0.07382559      -0.05017867 </v>
  </varray>
  <varray name="stress" >
   <v>      -0.54977772       0.00000000       0.00000000 </v>
   <v>       0.00000000      -2.74968155       0.00000000 </v>
   <v>       0.00000000       0.00000000       4.31854116 </v>
  </varray>
  <energy>
   <i name="e_fr_energy">    -66.53482380 </i>
   <i name="e_wo_entrp">    -66.53482378 </i>
   <i name="e_0_energy">     -0.00000004 </i>
  </energy>
  <time name="totalsc">   13.86   13.96</time>
  <eigenvalues>
   <array>
    <dimension dim="1">band</dimension>
    <dimension dim="2">kpoint</dimension>
    <dimension dim="3">spin</dimension>
    <field>eigene</field>
    <field>occ</field>
    <set>
     <set comment="spin 1">
      <set comment="kpoint 1">
       <r>  -14.8557    1.0000 </r>
       <r>  -14.7347    1.0000 </r>
       <r>  -14.6663    1.0000 </r>
       <r>  -12.3753    1.0000 </r>
       <r>  -12.1287    1.0000 </r>
       <r>  -11.9493    1.0000 </r>
       <r>   -8.6076    1.0000 </r>
       <r>   -8.5228    1.0000 </r>
       <r>   -8.4928    1.0000 </r>
       <r>   -5.9259    1.0000 </r>
       <r>   -5.5463    1.0000 </r>
       <r>   -5.1282    1.0000 </r>
       <r>   -4.5075    1.0000 </r>
       <r>   -4.5057    1.0000 </r>
       <r>   -4.1894    1.0000 </r>
       <r>   -4.1436    1.0000 </r>
       <r>   -3.9964    1.0000 </r>
       <r>   -3.9239    1.0000 </r>
       <r>   -3.3952    1.0000 </r>
       <r>   -3.2936    1.0000 </r>
       <r>   -3.2441    1.0000 </r>
       <r>   -1.8812    1.0000 </r>
       <r>   -1.7383    1.0000 </r>
       <r>   -1.6259    1.0000 </r>
       <r>   -1.5905    1.0000 </r>
       <r>   -1.5059    1.0000 </r>
       <r>   -1.1094    1.0000 </r>
       <r>   -0.2517    1.0000 </r>
       <r>    0.3526    1.0000 </r>
       <r>    0.9075    1.0000 </r>
       <r>    0.9679    0.0000 </r>
       <r>    1.4958    0.0000 </r>
       <r>    1.5216    0.0000 </r>
       <r>    1.6953    0.0000 </r>
       <r>    1.7044    0.0000 </r>
       <r>    1.8599    0.0000 </r>
       <r>    2.7289    0.0000 </r>
       <r>    2.9002    0.0000 </r>
       <r>    2.9705    0.0000 </r>
       <r>    3.6972    0.0000 </r>
      </set>
      <set comment="kpoint 2">
       <r>  -14.6178    1.0000 </r>
       <r>  -14.4976    1.0000 </r>
       <r>  -14.4301    1.0000 </r>
       <r>  -12.1278    1.0000 </r>
       <r>  -11.8822    1.0000 </r>
       <r>  -11.7037    1.0000 </r>
       <r>   -8.8089    1.0000 </r>
       <r>   -8.7417    1.0000 </r>
       <r>   -8.7303    1.0000 </r>
       <r>   -5.7241    1.0000 </r>
       <r>   -5.3500    1.0000 </r>
       <r>   -4.9483    1.0000 </r>
       <r>   -4.8019    1.0000 </r>
       <r>   -4.6802    1.0000 </r>
       <r>   -4.6081    1.0000 </r>
       <r>   -4.2947    1.0000 </r>
       <r>   -4.2498    1.0000 </r>
       <r>   -4.1611    1.0000 </r>
       <r>   -4.1582    1.0000 </r>
       <r>   -3.9451    1.0000 </r>
       <r>   -3.8000    1.0000 </r>
       <r>   -2.5080    1.0000 </r>
       <r>   -2.4103    1.0000 </r>
       <r>   -2.2968    1.0000 </r>
       <r>   -1.7731    1.0000 </r>
       <r>   -1.5057    1.0000 </r>
       <r>   -0.9981    1.0000 </r>
       <r>   -0.1995    1.0000 </r>
       <r>    0.2521    1.0000 </r>
       <r>    0.5827    1.0000 </r>
       <r>    1.1790    0.0000 </r>
       <r>    1.6401    0.0000 </r>
       <r>    1.8561    0.0000 </r>
       <r>    2.5647    0.0000 </r>
       <r>    2.7560    0.0000 </r>
       <r>    2.8175    0.0000 </r>
       <r>    3.2537    0.0000 </r>
       <r>    3.3938    0.0000 </r>
       <r>    3.5089    0.0000 </r>
       <r>    4.1445    0.0000 </r>
      </set>
      <set comment="kpoint 3">
       <r>  -13.9130    1.0000 </r>
       <r>  -13.7957    1.0000 </r>
       <r>  -13.7313    1.0000 </r>
       <r>  -11.3898    1.0000 </r>
       <r>  -11.1475    1.0000 </r>
       <r>  -10.9716    1.0000 </r>
       <r>   -9.7541    1.0000 </r>
       <r>   -9.6859    1.0000 </r>
       <r>   -9.6737    1.0000 </r>
       <r>   -6.5366    1.0000 </r>
       <r>   -6.3624    1.0000 </r>
       <r>   -6.2454    1.0000 </r>
       <r>   -5.1651    1.0000 </r>
       <r>   -4.9282    1.0000 </r>
       <r>   -4.8765    1.0000 </r>
       <r>   -4.8627    1.0000 </r>
       <r>   -4.8172    1.0000 </r>
       <r>   -4.4830    1.0000 </r>
       <r>   -3.6937    1.0000 </r>
       <r>   -3.3930    1.0000 </r>
       <r>   -3.2602    1.0000 </r>
       <r>   -2.8053    1.0000 </r>
       <r>   -2.5100    1.0000 </r>
       <r>   -2.2508    1.0000 </r>
       <r>   -1.7001    1.0000 </r>
       <r>   -1.4197    1.0000 </r>
       <r>   -1.0153    1.0000 </r>
       <r>   -0.5215    1.0000 </r>
       <r>   -0.4240    1.0000 </r>
       <r>   -0.4162    1.0000 </r>
       <r>    1.1515    0.0000 </r>
       <r>    1.2491    0.0000 </r>
       <r>    1.5402    0.0000 </r>
       <r>    1.8507    0.0000 </r>
       <r>    2.4589    0.0000 </r>
       <r>    2.6685    0.0000 </r>
       <r>    2.8187    0.0000 </r>
       <r>    3.1401    0.0000 </r>
       <r>    3.1823    0.0000 </r>
       <r>    3.2187    0.0000 </r>
      </set>
      <set comment="kpoint 4">
       <r>  -12.7753    1.0000 </r>
       <r>  -12.6642    1.0000 </r>
       <r>  -12.6064    1.0000 </r>
       <r>  -11.2972    1.0000 </r>
       <r>  -11.1996    1.0000 </r>
       <r>  -11.1561    1.0000 </r>
       <r>  -10.1766    1.0000 </r>
       <r>   -9.9412    1.0000 </r>
       <r>   -9.7707    1.0000 </r>
       <r>   -8.5246    1.0000 </r>
       <r>   -8.3042    1.0000 </r>
       <r>   -8.1461    1.0000 </r>
       <r>   -4.6428    1.0000 </r>
       <r>   -4.5642    1.0000 </r>
       <r>   -4.5639    1.0000 </r>
       <r>   -4.5342    1.0000 </r>
       <r>   -4.2996    1.0000 </r>
       <r>   -4.1514    1.0000 </r>
       <r>   -2.8553    1.0000 </r>
       <r>   -2.6882    1.0000 </r>
       <r>   -2.6078    1.0000 </r>
       <r>   -2.4424    1.0000 </r>
       <r>   -2.2484    1.0000 </r>
       <r>   -2.1616    1.0000 </r>
       <r>   -2.0450    1.0000 </r>
       <r>   -1.7824    1.0000 </r>
       <r>   -1.6824    1.0000 </r>
       <r>   -1.5283    1.0000 </r>
       <r>   -1.4288    1.0000 </r>
       <r>   -1.2026    1.0000 </r>
       <r>    1.4717    0.0000 </r>
       <r>    1.4894    0.0000 </r>
       <r>    1.6467    0.0000 </r>
       <r>    1.7480    0.0000 </r>
       <r>    1.8361    0.0000 </r>
       <r>    1.8462    0.0000 </r>
       <r>    1.8643    0.0000 </r>
       <r>    2.0530    0.0000 </r>
       <r>    2.1340    0.0000 </r>
       <r>    2.7754    0.0000 </r>
      </set>
      <set comment="kpoint 5">
       <r>  -14.6293    1.0000 </r>
       <r>  -14.5127    1.0000 </r>
       <r>  -14.4490    1.0000 </r>
       <r>  -12.5041    1.0000 </r>
       <r>  -12.3336    1.0000 </r>
       <r>  -12.2379    1.0000 </r>
       <r>   -8.9151    1.0000 </r>
       <r>   -8.8043    1.0000 </r>
       <r>   -8.7315    1.0000 </r>
       <r>   -6.5035    1.0000 </r>
       <r>   -6.2816    1.0000 </r>
       <r>   -6.2157    1.0000 </r>
       <r>   -4.5595    1.0000 </r>
       <r>   -4.2217    1.0000 </r>
       <r>   -3.6549    1.0000 </r>
       <r>   -3.4659    1.0000 </r>
       <r>   -3.2155    1.0000 </r>
       <r>   -3.1191    1.0000 </r>
       <r>   -3.0854    1.0000 </r>
       <r>   -3.0833    1.0000 </r>
       <r>   -3.0752    1.0000 </r>
       <r>   -1.8146    1.0000 </r>
       <r>   -1.6977    1.0000 </r>
       <r>   -1.6444    1.0000 </r>
       <r>   -1.3701    1.0000 </r>
       <r>   -0.7439    1.0000 </r>
       <r>   -0.6495    1.0000 </r>
       <r>   -0.5718    1.0000 </r>
       <r>   -0.3044    1.0000 </r>
       <r>   -0.1246    1.0000 </r>
       <r>    1.5738    0.0000 </r>
       <r>    1.9143    0.0000 </r>
       <r>    2.0047    0.0000 </r>
       <r>    2.0693    0.0000 </r>
       <r>    2.3819    0.0000 </r>
       <r>    2.3917    0.0000 </r>
       <r>    2.4728    0.0000 </r>
       <r>    2.4753    0.0000 </r>
       <r>    2.8685    0.0000 </r>
       <r>    3.4068    0.0000 </r>
      </set>
      <set comment="kpoint 6">
       <r>  -14.3935    1.0000 </r>
       <r>  -14.2778    1.0000 </r>
       <r>  -14.2150    1.0000 </r>
       <r>  -12.2667    1.0000 </r>
       <r>  -12.0992    1.0000 </r>
       <r>  -12.0066    1.0000 </r>
       <r>   -8.9780    1.0000 </r>
       <r>   -8.8665    1.0000 </r>
       <r>   -8.7959    1.0000 </r>
       <r>   -6.4222    1.0000 </r>
       <r>   -6.2248    1.0000 </r>
       <r>   -6.1452    1.0000 </r>
       <r>   -4.7730    1.0000 </r>
       <r>   -4.6969    1.0000 </r>
       <r>   -4.4914    1.0000 </r>
       <r>   -4.4895    1.0000 </r>
       <r>   -4.1216    1.0000 </r>
       <r>   -3.6815    1.0000 </r>
       <r>   -3.0007    1.0000 </r>
       <r>   -2.9547    1.0000 </r>
       <r>   -2.8004    1.0000 </r>
       <r>   -2.7769    1.0000 </r>
       <r>   -2.5479    1.0000 </r>
       <r>   -2.5427    1.0000 </r>
       <r>   -1.2289    1.0000 </r>
       <r>   -0.8468    1.0000 </r>
       <r>   -0.7436    1.0000 </r>
       <r>   -0.6854    1.0000 </r>
       <r>   -0.4417    1.0000 </r>
       <r>   -0.1516    1.0000 </r>
       <r>    1.7947    0.0000 </r>
       <r>    2.1379    0.0000 </r>
       <r>    2.4660    0.0000 </r>
       <r>    2.7053    0.0000 </r>
       <r>    2.8551    0.0000 </r>
       <r>    3.0568    0.0000 </r>
       <r>    3.4222    0.0000 </r>
       <r>    3.4703    0.0000 </r>
       <r>    3.4912    0.0000 </r>
       <r>    4.1149    0.0000 </r>
      </set>
      <set comment="kpoint 7">
       <r>  -13.6975    1.0000 </r>
       <r>  -13.5848    1.0000 </r>
       <r>  -13.5253    1.0000 </r>
       <r>  -11.5870    1.0000 </r>
       <r>  -11.4362    1.0000 </r>
       <r>  -11.3605    1.0000 </r>
       <r>   -9.5617    1.0000 </r>
       <r>   -9.4335    1.0000 </r>
       <r>   -9.3515    1.0000 </r>
       <r>   -6.8577    1.0000 </r>
       <r>   -6.7772    1.0000 </r>
       <r>   -6.7615    1.0000 </r>
       <r>   -5.6705    1.0000 </r>
       <r>   -5.5269    1.0000 </r>
       <r>   -5.4204    1.0000 </r>
       <r>   -4.9093    1.0000 </r>
       <r>   -4.6657    1.0000 </r>
       <r>   -4.6212    1.0000 </r>
       <r>   -3.2252    1.0000 </r>
       <r>   -3.1635    1.0000 </r>
       <r>   -2.9847    1.0000 </r>
       <r>   -2.5153    1.0000 </r>
       <r>   -2.4063    1.0000 </r>
       <r>   -2.3800    1.0000 </r>
       <r>   -1.8437    1.0000 </r>
       <r>   -1.6063    1.0000 </r>
       <r>   -1.2087    1.0000 </r>
       <r>   -0.9573    1.0000 </r>
       <r>   -0.6054    1.0000 </r>
       <r>   -0.5079    1.0000 </r>
       <r>    1.8633    0.0000 </r>
       <r>    2.0049    0.0000 </r>
       <r>    2.0272    0.0000 </r>
       <r>    2.4264    0.0000 </r>
       <r>    2.4780    0.0000 </r>
       <r>    2.5616    0.0000 </r>
       <r>    2.7400    0.0000 </r>
       <r>    2.9011    0.0000 </r>
       <r>    3.2170    0.0000 </r>
       <r>    3.9917    0.0000 </r>
      </set>
      <set comment="kpoint 8">
       <r>  -12.5892    1.0000 </r>
       <r>  -12.4839    1.0000 </r>
       <r>  -12.4322    1.0000 </r>
       <r>  -11.3006    1.0000 </r>
       <r>  -11.2147    1.0000 </r>
       <r>  -11.1851    1.0000 </r>
       <r>  -10.0531    1.0000 </r>
       <r>   -9.8546    1.0000 </r>
       <r>   -9.7221    1.0000 </r>
       <r>   -8.6003    1.0000 </r>
       <r>   -8.4359    1.0000 </r>
       <r>   -8.3381    1.0000 </r>
       <r>   -5.3023    1.0000 </r>
       <r>   -5.1599    1.0000 </r>
       <r>   -5.0443    1.0000 </r>
       <r>   -4.6107    1.0000 </r>
       <r>   -4.4198    1.0000 </r>
       <r>   -4.3409    1.0000 </r>
       <r>   -3.5508    1.0000 </r>
       <r>   -3.3687    1.0000 </r>
       <r>   -3.2497    1.0000 </r>
       <r>   -2.9400    1.0000 </r>
       <r>   -2.7894    1.0000 </r>
       <r>   -2.7763    1.0000 </r>
       <r>   -2.0167    1.0000 </r>
       <r>   -1.6640    1.0000 </r>
       <r>   -1.2093    1.0000 </r>
       <r>   -1.1335    1.0000 </r>
       <r>   -0.9019    1.0000 </r>
       <r>   -0.8180    1.0000 </r>
       <r>    1.4670    0.0000 </r>
       <r>    1.6852    0.0000 </r>
       <r>    1.7131    0.0000 </r>
       <r>    2.2466    0.0000 </r>
       <r>    2.4522    0.0000 </r>
       <r>    2.4612    0.0000 </r>
       <r>    2.9419    0.0000 </r>
       <r>    2.9711    0.0000 </r>
       <r>    3.1301    0.0000 </r>
       <r>    3.2861    0.0000 </r>
      </set>
      <set comment="kpoint 9">
       <r>  -13.9859    1.0000 </r>
       <r>  -13.8872    1.0000 </r>
       <r>  -13.8432    1.0000 </r>
       <r>  -13.0873    1.0000 </r>
       <r>  -13.0264    1.0000 </r>
       <r>  -13.0243    1.0000 </r>
       <r>   -8.9309    1.0000 </r>
       <r>   -8.6563    1.0000 </r>
       <r>   -8.4194    1.0000 </r>
       <r>   -8.0127    1.0000 </r>
       <r>   -7.6870    1.0000 </r>
       <r>   -7.4140    1.0000 </r>
       <r>   -4.1045    1.0000 </r>
       <r>   -3.3810    1.0000 </r>
       <r>   -2.9590    1.0000 </r>
       <r>   -2.7289    1.0000 </r>
       <r>   -2.6515    1.0000 </r>
       <r>   -2.6281    1.0000 </r>
       <r>   -2.5780    1.0000 </r>
       <r>   -2.2265    1.0000 </r>
       <r>   -2.1413    1.0000 </r>
       <r>   -2.0804    1.0000 </r>
       <r>   -2.0801    1.0000 </r>
       <r>   -1.7925    1.0000 </r>
       <r>   -1.3325    1.0000 </r>
       <r>   -1.2915    1.0000 </r>
       <r>   -1.2491    1.0000 </r>
       <r>   -0.0160    1.0000 </r>
       <r>    0.0960    1.0000 </r>
       <r>    0.1429    1.0000 </r>
       <r>    1.9422    0.0000 </r>
       <r>    2.0547    0.0000 </r>
       <r>    2.0600    0.0000 </r>
       <r>    2.1237    0.0000 </r>
       <r>    2.3052    0.0000 </r>
       <r>    2.3284    0.0000 </r>
       <r>    3.1957    0.0000 </r>
       <r>    3.2104    0.0000 </r>
       <r>    3.3547    0.0000 </r>
       <r>    3.4414    0.0000 </r>
      </set>
      <set comment="kpoint 10">
       <r>  -13.7564    1.0000 </r>
       <r>  -13.6584    1.0000 </r>
       <r>  -13.6151    1.0000 </r>
       <r>  -12.8637    1.0000 </r>
       <r>  -12.8027    1.0000 </r>
       <r>  -12.8009    1.0000 </r>
       <r>   -8.8439    1.0000 </r>
       <r>   -8.5817    1.0000 </r>
       <r>   -8.3621    1.0000 </r>
       <r>   -7.8933    1.0000 </r>
       <r>   -7.5900    1.0000 </r>
       <r>   -7.3427    1.0000 </r>
       <r>   -4.3789    1.0000 </r>
       <r>   -4.2790    1.0000 </r>
       <r>   -4.1591    1.0000 </r>
       <r>   -3.9202    1.0000 </r>
       <r>   -3.6653    1.0000 </r>
       <r>   -3.6168    1.0000 </r>
       <r>   -3.5113    1.0000 </r>
       <r>   -3.1716    1.0000 </r>
       <r>   -2.7597    1.0000 </r>
       <r>   -2.4665    1.0000 </r>
       <r>   -2.0855    1.0000 </r>
       <r>   -1.5579    1.0000 </r>
       <r>   -0.9863    1.0000 </r>
       <r>   -0.9212    1.0000 </r>
       <r>   -0.8527    1.0000 </r>
       <r>   -0.5565    1.0000 </r>
       <r>   -0.4036    1.0000 </r>
       <r>   -0.2382    1.0000 </r>
       <r>    2.6657    0.0000 </r>
       <r>    2.7164    0.0000 </r>
       <r>    2.8763    0.0000 </r>
       <r>    3.0333    0.0000 </r>
       <r>    3.1672    0.0000 </r>
       <r>    3.2795    0.0000 </r>
       <r>    3.3525    0.0000 </r>
       <r>    3.4723    0.0000 </r>
       <r>    3.7361    0.0000 </r>
       <r>    3.8206    0.0000 </r>
      </set>
      <set comment="kpoint 11">
       <r>  -13.0880    1.0000 </r>
       <r>  -12.9929    1.0000 </r>
       <r>  -12.9525    1.0000 </r>
       <r>  -12.2322    1.0000 </r>
       <r>  -12.1708    1.0000 </r>
       <r>  -12.1700    1.0000 </r>
       <r>   -8.9335    1.0000 </r>
       <r>   -8.7347    1.0000 </r>
       <r>   -8.5949    1.0000 </r>
       <r>   -7.9062    1.0000 </r>
       <r>   -7.7347    1.0000 </r>
       <r>   -7.6348    1.0000 </r>
       <r>   -5.8573    1.0000 </r>
       <r>   -5.6562    1.0000 </r>
       <r>   -5.4933    1.0000 </r>
       <r>   -5.2989    1.0000 </r>
       <r>   -5.1088    1.0000 </r>
       <r>   -4.9648    1.0000 </r>
       <r>   -3.5765    1.0000 </r>
       <r>   -3.0892    1.0000 </r>
       <r>   -2.7531    1.0000 </r>
       <r>   -2.7041    1.0000 </r>
       <r>   -2.3639    1.0000 </r>
       <r>   -2.1154    1.0000 </r>
       <r>   -1.9622    1.0000 </r>
       <r>   -1.5728    1.0000 </r>
       <r>   -1.4479    1.0000 </r>
       <r>   -1.1190    1.0000 </r>
       <r>   -0.9327    1.0000 </r>
       <r>   -0.6057    1.0000 </r>
       <r>    2.1790    0.0000 </r>
       <r>    2.7280    0.0000 </r>
       <r>    2.7421    0.0000 </r>
       <r>    3.2786    0.0000 </r>
       <r>    3.3432    0.0000 </r>
       <r>    3.4351    0.0000 </r>
       <r>    3.8674    0.0000 </r>
       <r>    3.9597    0.0000 </r>
       <r>    4.1674    0.0000 </r>
       <r>    4.2042    0.0000 </r>
      </set>
      <set comment="kpoint 12">
       <r>  -12.0924    1.0000 </r>
       <r>  -12.0078    1.0000 </r>
       <r>  -11.9783    1.0000 </r>
       <r>  -11.5269    1.0000 </r>
       <r>  -11.4696    1.0000 </r>
       <r>  -11.4691    1.0000 </r>
       <r>   -9.6219    1.0000 </r>
       <r>   -9.4966    1.0000 </r>
       <r>   -9.4350    1.0000 </r>
       <r>   -8.9627    1.0000 </r>
       <r>   -8.8970    1.0000 </r>
       <r>   -8.8967    1.0000 </r>
       <r>   -5.6726    1.0000 </r>
       <r>   -5.4170    1.0000 </r>
       <r>   -5.1875    1.0000 </r>
       <r>   -5.0975    1.0000 </r>
       <r>   -4.8065    1.0000 </r>
       <r>   -4.6632    1.0000 </r>
       <r>   -4.3648    1.0000 </r>
       <r>   -4.1980    1.0000 </r>
       <r>   -3.9745    1.0000 </r>
       <r>   -3.8873    1.0000 </r>
       <r>   -3.5848    1.0000 </r>
       <r>   -3.3469    1.0000 </r>
       <r>   -1.8571    1.0000 </r>
       <r>   -1.3738    1.0000 </r>
       <r>   -1.1857    1.0000 </r>
       <r>   -1.0004    1.0000 </r>
       <r>   -0.9598    1.0000 </r>
       <r>   -0.9300    1.0000 </r>
       <r>    2.3498    0.0000 </r>
       <r>    2.5923    0.0000 </r>
       <r>    2.9210    0.0000 </r>
       <r>    2.9878    0.0000 </r>
       <r>    3.1613    0.0000 </r>
       <r>    3.4272    0.0000 </r>
       <r>    3.5670    0.0000 </r>
       <r>    3.7020    0.0000 </r>
       <r>    3.8313    0.0000 </r>
       <r>    4.5852    0.0000 </r>
      </set>
     </set>
    </set>
   </array>
  </eigenvalues>
  <separator name="orbital magnetization" >
   <v name="MAGDIPOLOUT">      0.00000000      0.00000000      0.00000000</v>
  </separator>
  <dos>
   <i name="efermi">      0.93768283 </i>
   <total>
    <array>
     <dimension dim="1">gridpoints</dimension>
     <dimension dim="2">spin</dimension>
     <field>energy</field>
     <field>total</field>
     <field>integrated</field>
     <set>
      <set comment="spin 1">
       <r>   -15.8278     0.0000     0.0000 </r>
       <r>   -15.8171     0.0000     0.0000 </r>
       <r>   -15.8064     0.0000     0.0000 </r>
       <r>   -15.7957     0.0000     0.0000 </r>
       <r>   -15.7850     0.0000     0.0000 </r>
       <r>   -15.7743     0.0000     0.0000 </r>
       <r>   -15.7636     0.0000     0.0000 </r>
       <r>   -15.7529     0.0000     0.0000 </r>
       <r>   -15.7422     0.0000     0.0000 </r>
       <r>   -15.7315     0.0000     0.0000 </r>
       <r>   -15.7208     0.0000     0.0000 </r>
       <r>   -15.7101     0.0000     0.0000 </r>
       <r>   -15.6994     0.0000     0.0000 </r>
       <r>   -15.6887     0.0000     0.0000 </r>
       <r>   -15.6780     0.0000     0.0000 </r>
       <r>   -15.6673     0.0000     0.0000 </r>
       <r>   -15.6566     0.0000     0.0000 </r>
       <r>   -15.6459     0.0000     0.0000 </r>
       <r>   -15.6352     0.0000     0.0000 </r>
       <r>   -15.6245     0.0000     0.0000 </r>
       <r>   -15.6138     0.0000     0.0000 </r>
       <r>   -15.6031     0.0000     0.0000 </r>
       <r>   -15.5924     0.0000     0.0000 </r>
       <r>   -15.5817     0.0000     0.0000 </r>
       <r>   -15.5710     0.0000     0.0000 </r>
       <r>   -15.5603     0.0000     0.0000 </r>
       <r>   -15.5496     0.0000     0.0000 </r>
       <r>   -15.5389     0.0000     0.0000 </r>
       <r>   -15.5282     0.0000     0.0000 </r>
       <r>   -15.5175     0.0000     0.0000 </r>
       <r>   -15.5068     0.0000     0.0000 </r>
       <r>   -15.4961     0.0000     0.0000 </r>
       <r>   -15.4854     0.0000     0.0000 </r>
       <r>   -15.4747     0.0000     0.0000 </r>
       <r>   -15.4640     0.0000     0.0000 </r>
       <r>   -15.4534     0.0000     0.0000 </r>
       <r>   -15.4427     0.0000     0.0000 </r>
       <r>   -15.4320     0.0000     0.0000 </r>
       <r>   -15.4213     0.0000     0.0000 </r>
       <r>   -15.4106     0.0000     0.0000 </r>
       <r>   -15.3999     0.0000     0.0000 </r>
       <r>   -15.3892     0.0000     0.0000 </r>
       <r>   -15.3785     0.0000     0.0000 </r>
       <r>   -15.3678     0.0000     0.0000 </r>
       <r>   -15.3571     0.0000     0.0000 </r>
       <r>   -15.3464     0.0000     0.0000 </r>
       <r>   -15.3357     0.0000     0.0000 </r>
       <r>   -15.3250     0.0000     0.0000 </r>
       <r>   -15.3143     0.0000     0.0000 </r>
       <r>   -15.3036     0.0000     0.0000 </r>
       <r>   -15.2929     0.0000     0.0000 </r>
       <r>   -15.2822     0.0000     0.0000 </r>
       <r>   -15.2715     0.0000     0.0000 </r>
       <r>   -15.2608     0.0000     0.0000 </r>
       <r>   -15.2501     0.0000     0.0000 </r>
       <r>   -15.2394     0.0000     0.0000 </r>
       <r>   -15.2287     0.0000     0.0000 </r>
       <r>   -15.2180     0.0000     0.0000 </r>
       <r>   -15.2073     0.0000     0.0000 </r>
       <r>   -15.1966     0.0000     0.0000 </r>
       <r>   -15.1859     0.0000     0.0000 </r>
       <r>   -15.1752     0.0000     0.0000 </r>
       <r>   -15.1645     0.0000     0.0000 </r>
       <r>   -15.1538     0.0000     0.0000 </r>
       <r>   -15.1431     0.0000     0.0000 </r>
       <r>   -15.1324     0.0000     0.0000 </r>
       <r>   -15.1217     0.0000     0.0000 </r>
       <r>   -15.1110     0.0000     0.0000 </r>
       <r>   -15.1003     0.0000     0.0000 </r>
       <r>   -15.0896     0.0000     0.0000 </r>
       <r>   -15.0789     0.0000     0.0000 </r>
       <r>   -15.0682     0.0000     0.0000 </r>
       <r>   -15.0575     0.0000     0.0000 </r>
       <r>   -15.0468     0.0000     0.0000 </r>
       <r>   -15.0361     0.0000     0.0000 </r>
       <r>   -15.0254     0.0000     0.0000 </r>
       <r>   -15.0147     0.0000     0.0000 </r>
       <r>   -15.0040     0.0000     0.0000 </r>
       <r>   -14.9933     0.0000     0.0000 </r>
       <r>   -14.9826     0.0000     0.0000 </r>
       <r>   -14.9719     0.0000     0.0000 </r>
       <r>   -14.9612     0.0000     0.0000 </r>
       <r>   -14.9506     0.0000     0.0000 </r>
       <r>   -14.9399     0.0000     0.0000 </r>
       <r>   -14.9292     0.0000     0.0000 </r>
       <r>   -14.9185     0.0000     0.0000 </r>
       <r>   -14.9078     0.0000     0.0000 </r>
       <r>   -14.8971     0.0000     0.0000 </r>
       <r>   -14.8864     0.0000     0.0000 </r>
       <r>   -14.8757     0.0128     0.0001 </r>
       <r>   -14.8650     0.4982     0.0055 </r>
       <r>   -14.8543     2.5962     0.0332 </r>
       <r>   -14.8436     2.0057     0.0547 </r>
       <r>   -14.8329     0.2253     0.0571 </r>
       <r>   -14.8222     0.0033     0.0571 </r>
       <r>   -14.8115     0.0000     0.0571 </r>
       <r>   -14.8008     0.0000     0.0571 </r>
       <r>   -14.7901     0.0000     0.0571 </r>
       <r>   -14.7794     0.0000     0.0571 </r>
       <r>   -14.7687     0.0000     0.0571 </r>
       <r>   -14.7580     0.0026     0.0572 </r>
       <r>   -14.7473     0.1977     0.0593 </r>
       <r>   -14.7366     1.9072     0.0797 </r>
       <r>   -14.7259     2.6652     0.1082 </r>
       <r>   -14.7152     0.5533     0.1141 </r>
       <r>   -14.7045     0.0155     0.1143 </r>
       <r>   -14.6938     0.0003     0.1143 </r>
       <r>   -14.6831     0.0468     0.1148 </r>
       <r>   -14.6724     0.9929     0.1254 </r>
       <r>   -14.6617     2.9281     0.1567 </r>
       <r>   -14.6510     1.3036     0.1707 </r>
       <r>   -14.6403     0.7108     0.1783 </r>
       <r>   -14.6296     5.0050     0.2318 </r>
       <r>   -14.6189     8.9484     0.3276 </r>
       <r>   -14.6082     5.8204     0.3898 </r>
       <r>   -14.5975     0.9292     0.3998 </r>
       <r>   -14.5868     0.0220     0.4000 </r>
       <r>   -14.5761     0.0001     0.4000 </r>
       <r>   -14.5654     0.0000     0.4000 </r>
       <r>   -14.5547     0.0000     0.4000 </r>
       <r>   -14.5440     0.0000     0.4000 </r>
       <r>   -14.5333     0.0186     0.4002 </r>
       <r>   -14.5226     0.8335     0.4091 </r>
       <r>   -14.5119     5.1649     0.4644 </r>
       <r>   -14.5012     7.3545     0.5430 </r>
       <r>   -14.4905     6.2941     0.6104 </r>
       <r>   -14.4798     1.6369     0.6279 </r>
       <r>   -14.4691     0.0869     0.6288 </r>
       <r>   -14.4584     0.9502     0.6390 </r>
       <r>   -14.4477     5.1945     0.6946 </r>
       <r>   -14.4371     5.7849     0.7564 </r>
       <r>   -14.4264     6.2426     0.8232 </r>
       <r>   -14.4157     2.9725     0.8550 </r>
       <r>   -14.4050     1.3161     0.8691 </r>
       <r>   -14.3943     8.6385     0.9615 </r>
       <r>   -14.3836     9.8968     1.0674 </r>
       <r>   -14.3729     1.6749     1.0853 </r>
       <r>   -14.3622     0.0377     1.0857 </r>
       <r>   -14.3515     0.0001     1.0857 </r>
       <r>   -14.3408     0.0000     1.0857 </r>
       <r>   -14.3301     0.0000     1.0857 </r>
       <r>   -14.3194     0.0000     1.0857 </r>
       <r>   -14.3087     0.0001     1.0857 </r>
       <r>   -14.2980     0.0453     1.0862 </r>
       <r>   -14.2873     1.8596     1.1061 </r>
       <r>   -14.2766    10.1947     1.2152 </r>
       <r>   -14.2659     8.2730     1.3037 </r>
       <r>   -14.2552     0.9782     1.3141 </r>
       <r>   -14.2445     0.0154     1.3143 </r>
       <r>   -14.2338     0.0847     1.3152 </r>
       <r>   -14.2231     2.6278     1.3433 </r>
       <r>   -14.2124    11.0700     1.4617 </r>
       <r>   -14.2017     6.9482     1.5361 </r>
       <r>   -14.1910     0.6276     1.5428 </r>
       <r>   -14.1803     0.0072     1.5429 </r>
       <r>   -14.1696     0.0000     1.5429 </r>
       <r>   -14.1589     0.0000     1.5429 </r>
       <r>   -14.1482     0.0000     1.5429 </r>
       <r>   -14.1375     0.0000     1.5429 </r>
       <r>   -14.1268     0.0000     1.5429 </r>
       <r>   -14.1161     0.0000     1.5429 </r>
       <r>   -14.1054     0.0000     1.5429 </r>
       <r>   -14.0947     0.0000     1.5429 </r>
       <r>   -14.0840     0.0000     1.5429 </r>
       <r>   -14.0733     0.0000     1.5429 </r>
       <r>   -14.0626     0.0000     1.5429 </r>
       <r>   -14.0519     0.0000     1.5429 </r>
       <r>   -14.0412     0.0000     1.5429 </r>
       <r>   -14.0305     0.0000     1.5429 </r>
       <r>   -14.0198     0.0000     1.5429 </r>
       <r>   -14.0091     0.0055     1.5429 </r>
       <r>   -13.9984     0.4037     1.5472 </r>
       <r>   -13.9877     3.8455     1.5884 </r>
       <r>   -13.9770     5.3096     1.6452 </r>
       <r>   -13.9663     1.0887     1.6568 </r>
       <r>   -13.9556     0.0300     1.6571 </r>
       <r>   -13.9449     0.0001     1.6571 </r>
       <r>   -13.9343     0.0141     1.6573 </r>
       <r>   -13.9236     0.7099     1.6649 </r>
       <r>   -13.9129     4.7056     1.7152 </r>
       <r>   -13.9022     4.7657     1.7662 </r>
       <r>   -13.8915     3.3760     1.8023 </r>
       <r>   -13.8808     5.8417     1.8648 </r>
       <r>   -13.8701     1.8704     1.8848 </r>
       <r>   -13.8594     0.1990     1.8870 </r>
       <r>   -13.8487     2.2098     1.9106 </r>
       <r>   -13.8380     5.8810     1.9735 </r>
       <r>   -13.8273     2.3439     1.9986 </r>
       <r>   -13.8166     0.1478     2.0002 </r>
       <r>   -13.8059     0.7843     2.0086 </r>
       <r>   -13.7952     4.8508     2.0605 </r>
       <r>   -13.7845     4.4301     2.1078 </r>
       <r>   -13.7738     0.7425     2.1158 </r>
       <r>   -13.7631     3.5626     2.1539 </r>
       <r>   -13.7524    11.6157     2.2782 </r>
       <r>   -13.7417     6.4026     2.3467 </r>
       <r>   -13.7310     5.1525     2.4018 </r>
       <r>   -13.7203     4.5449     2.4504 </r>
       <r>   -13.7096     1.5429     2.4669 </r>
       <r>   -13.6989     8.0674     2.5532 </r>
       <r>   -13.6882    10.3607     2.6640 </r>
       <r>   -13.6775     2.0484     2.6860 </r>
       <r>   -13.6668     2.4836     2.7125 </r>
       <r>   -13.6561    10.8944     2.8291 </r>
       <r>   -13.6454     7.2583     2.9067 </r>
       <r>   -13.6347     0.7574     2.9148 </r>
       <r>   -13.6240     2.1710     2.9381 </r>
       <r>   -13.6133    10.6019     3.0515 </r>
       <r>   -13.6026     7.8418     3.1354 </r>
       <r>   -13.5919     4.0392     3.1786 </r>
       <r>   -13.5812    11.4737     3.3013 </r>
       <r>   -13.5705     6.0879     3.3664 </r>
       <r>   -13.5598     0.4612     3.3714 </r>
       <r>   -13.5491     0.0123     3.3715 </r>
       <r>   -13.5384     0.6634     3.3786 </r>
       <r>   -13.5277     7.1088     3.4547 </r>
       <r>   -13.5170    10.9811     3.5721 </r>
       <r>   -13.5063     2.5258     3.5992 </r>
       <r>   -13.4956     0.0787     3.6000 </r>
       <r>   -13.4849     0.0003     3.6000 </r>
       <r>   -13.4742     0.0000     3.6000 </r>
       <r>   -13.4635     0.0000     3.6000 </r>
       <r>   -13.4528     0.0000     3.6000 </r>
       <r>   -13.4421     0.0000     3.6000 </r>
       <r>   -13.4315     0.0000     3.6000 </r>
       <r>   -13.4208     0.0000     3.6000 </r>
       <r>   -13.4101     0.0000     3.6000 </r>
       <r>   -13.3994     0.0000     3.6000 </r>
       <r>   -13.3887     0.0000     3.6000 </r>
       <r>   -13.3780     0.0000     3.6000 </r>
       <r>   -13.3673     0.0000     3.6000 </r>
       <r>   -13.3566     0.0000     3.6000 </r>
       <r>   -13.3459     0.0000     3.6000 </r>
       <r>   -13.3352     0.0000     3.6000 </r>
       <r>   -13.3245     0.0000     3.6000 </r>
       <r>   -13.3138     0.0000     3.6000 </r>
       <r>   -13.3031     0.0000     3.6000 </r>
       <r>   -13.2924     0.0000     3.6000 </r>
       <r>   -13.2817     0.0000     3.6000 </r>
       <r>   -13.2710     0.0000     3.6000 </r>
       <r>   -13.2603     0.0000     3.6000 </r>
       <r>   -13.2496     0.0000     3.6000 </r>
       <r>   -13.2389     0.0000     3.6000 </r>
       <r>   -13.2282     0.0000     3.6000 </r>
       <r>   -13.2175     0.0000     3.6000 </r>
       <r>   -13.2068     0.0000     3.6000 </r>
       <r>   -13.1961     0.0000     3.6000 </r>
       <r>   -13.1854     0.0000     3.6000 </r>
       <r>   -13.1747     0.0000     3.6000 </r>
       <r>   -13.1640     0.0000     3.6000 </r>
       <r>   -13.1533     0.0000     3.6000 </r>
       <r>   -13.1426     0.0000     3.6000 </r>
       <r>   -13.1319     0.0000     3.6000 </r>
       <r>   -13.1212     0.0000     3.6000 </r>
       <r>   -13.1105     0.0214     3.6002 </r>
       <r>   -13.0998     1.4168     3.6154 </r>
       <r>   -13.0891    12.2276     3.7462 </r>
       <r>   -13.0784    15.4190     3.9111 </r>
       <r>   -13.0677     2.8911     3.9421 </r>
       <r>   -13.0570     0.0729     3.9429 </r>
       <r>   -13.0463     0.0356     3.9432 </r>
       <r>   -13.0356     1.5722     3.9601 </r>
       <r>   -13.0249     9.5853     4.0626 </r>
       <r>   -13.0142     8.9258     4.1581 </r>
       <r>   -13.0035     2.6511     4.1864 </r>
       <r>   -12.9928     9.3905     4.2869 </r>
       <r>   -12.9821     9.2151     4.3855 </r>
       <r>   -12.9714     1.4112     4.4006 </r>
       <r>   -12.9607     2.5665     4.4280 </r>
       <r>   -12.9500    10.9951     4.5457 </r>
       <r>   -12.9393     7.0843     4.6215 </r>
       <r>   -12.9287     0.6578     4.6285 </r>
       <r>   -12.9180     0.0078     4.6286 </r>
       <r>   -12.9073     0.0000     4.6286 </r>
       <r>   -12.8966     0.0000     4.6286 </r>
       <r>   -12.8859     0.0187     4.6288 </r>
       <r>   -12.8752     1.1135     4.6407 </r>
       <r>   -12.8645     8.6692     4.7334 </r>
       <r>   -12.8538     9.8687     4.8390 </r>
       <r>   -12.8431     1.6588     4.8567 </r>
       <r>   -12.8324     0.0374     4.8571 </r>
       <r>   -12.8217     0.1146     4.8584 </r>
       <r>   -12.8110     4.1528     4.9028 </r>
       <r>   -12.8003    20.7957     5.1253 </r>
       <r>   -12.7896    16.0749     5.2972 </r>
       <r>   -12.7789     4.8533     5.3492 </r>
       <r>   -12.7682     5.7554     5.4107 </r>
       <r>   -12.7575     1.6060     5.4279 </r>
       <r>   -12.7468     0.0618     5.4286 </r>
       <r>   -12.7361     0.0003     5.4286 </r>
       <r>   -12.7254     0.0000     5.4286 </r>
       <r>   -12.7147     0.0000     5.4286 </r>
       <r>   -12.7040     0.0000     5.4286 </r>
       <r>   -12.6933     0.0002     5.4286 </r>
       <r>   -12.6826     0.0497     5.4291 </r>
       <r>   -12.6719     1.4314     5.4444 </r>
       <r>   -12.6612     5.6245     5.5046 </r>
       <r>   -12.6505     3.2971     5.5399 </r>
       <r>   -12.6398     0.2772     5.5428 </r>
       <r>   -12.6291     0.0100     5.5429 </r>
       <r>   -12.6184     0.4688     5.5479 </r>
       <r>   -12.6077     4.1645     5.5925 </r>
       <r>   -12.5970     7.9268     5.6773 </r>
       <r>   -12.5863    12.1533     5.8073 </r>
       <r>   -12.5756     6.7429     5.8794 </r>
       <r>   -12.5649     0.5794     5.8856 </r>
       <r>   -12.5542     0.0064     5.8857 </r>
       <r>   -12.5435     0.0000     5.8857 </r>
       <r>   -12.5328     0.0003     5.8857 </r>
       <r>   -12.5221     0.0583     5.8863 </r>
       <r>   -12.5114     1.5592     5.9030 </r>
       <r>   -12.5007     5.8843     5.9660 </r>
       <r>   -12.4900     7.0276     6.0412 </r>
       <r>   -12.4793    11.9434     6.1689 </r>
       <r>   -12.4686     5.2420     6.2250 </r>
       <r>   -12.4579     0.3344     6.2286 </r>
       <r>   -12.4472     0.3553     6.2324 </r>
       <r>   -12.4365     5.3924     6.2901 </r>
       <r>   -12.4258    11.6692     6.4149 </r>
       <r>   -12.4152     3.7786     6.4553 </r>
       <r>   -12.4045     0.1696     6.4571 </r>
       <r>   -12.3938     0.0251     6.4574 </r>
       <r>   -12.3831     0.7050     6.4649 </r>
       <r>   -12.3724     2.8047     6.4949 </r>
       <r>   -12.3617     1.6646     6.5128 </r>
       <r>   -12.3510     0.2163     6.5151 </r>
       <r>   -12.3403     1.7719     6.5340 </r>
       <r>   -12.3296     5.7983     6.5961 </r>
       <r>   -12.3189     2.8402     6.6264 </r>
       <r>   -12.3082     0.1975     6.6286 </r>
       <r>   -12.2975     0.0019     6.6286 </r>
       <r>   -12.2868     0.0475     6.6291 </r>
       <r>   -12.2761     1.9104     6.6495 </r>
       <r>   -12.2654    10.2701     6.7594 </r>
       <r>   -12.2547     8.2849     6.8480 </r>
       <r>   -12.2440     3.9251     6.8900 </r>
       <r>   -12.2333    14.2004     7.0419 </r>
       <r>   -12.2226    12.7398     7.1782 </r>
       <r>   -12.2119     1.9913     7.1995 </r>
       <r>   -12.2012     0.0456     7.2000 </r>
       <r>   -12.1905     0.0982     7.2011 </r>
       <r>   -12.1798     3.8729     7.2425 </r>
       <r>   -12.1691    20.5778     7.4626 </r>
       <r>   -12.1584    16.2729     7.6367 </r>
       <r>   -12.1477     1.9270     7.6573 </r>
       <r>   -12.1370     1.6563     7.6750 </r>
       <r>   -12.1263     7.9450     7.7600 </r>
       <r>   -12.1156     6.0131     7.8244 </r>
       <r>   -12.1049     5.6962     7.8853 </r>
       <r>   -12.0942    19.4547     8.0934 </r>
       <r>   -12.0835    15.4562     8.2588 </r>
       <r>   -12.0728     2.4560     8.2850 </r>
       <r>   -12.0621     0.0620     8.2857 </r>
       <r>   -12.0514     0.0002     8.2857 </r>
       <r>   -12.0407     0.0000     8.2857 </r>
       <r>   -12.0300     0.0275     8.2860 </r>
       <r>   -12.0193     1.8342     8.3056 </r>
       <r>   -12.0086    16.0658     8.4775 </r>
       <r>   -11.9979    20.7607     8.6996 </r>
       <r>   -11.9872     6.1665     8.7656 </r>
       <r>   -11.9765    10.7131     8.8802 </r>
       <r>   -11.9658     7.7599     8.9632 </r>
       <r>   -11.9551     1.8604     8.9831 </r>
       <r>   -11.9444     2.9473     9.0146 </r>
       <r>   -11.9337     1.2310     9.0278 </r>
       <r>   -11.9230     0.0726     9.0286 </r>
       <r>   -11.9124     0.0006     9.0286 </r>
       <r>   -11.9017     0.0315     9.0289 </r>
       <r>   -11.8910     1.1169     9.0409 </r>
       <r>   -11.8803     5.3422     9.0980 </r>
       <r>   -11.8696     3.7965     9.1386 </r>
       <r>   -11.8589     0.3907     9.1428 </r>
       <r>   -11.8482     0.0052     9.1429 </r>
       <r>   -11.8375     0.0000     9.1429 </r>
       <r>   -11.8268     0.0000     9.1429 </r>
       <r>   -11.8161     0.0000     9.1429 </r>
       <r>   -11.8054     0.0000     9.1429 </r>
       <r>   -11.7947     0.0000     9.1429 </r>
       <r>   -11.7840     0.0000     9.1429 </r>
       <r>   -11.7733     0.0000     9.1429 </r>
       <r>   -11.7626     0.0000     9.1429 </r>
       <r>   -11.7519     0.0000     9.1429 </r>
       <r>   -11.7412     0.0000     9.1429 </r>
       <r>   -11.7305     0.0008     9.1429 </r>
       <r>   -11.7198     0.1193     9.1441 </r>
       <r>   -11.7091     2.2394     9.1681 </r>
       <r>   -11.6984     5.8819     9.2310 </r>
       <r>   -11.6877     2.3133     9.2558 </r>
       <r>   -11.6770     0.1275     9.2571 </r>
       <r>   -11.6663     0.0009     9.2571 </r>
       <r>   -11.6556     0.0000     9.2571 </r>
       <r>   -11.6449     0.0000     9.2571 </r>
       <r>   -11.6342     0.0000     9.2571 </r>
       <r>   -11.6235     0.0000     9.2571 </r>
       <r>   -11.6128     0.0028     9.2572 </r>
       <r>   -11.6021     0.3482     9.2609 </r>
       <r>   -11.5914     5.3611     9.3183 </r>
       <r>   -11.5807    11.6759     9.4432 </r>
       <r>   -11.5700     3.8052     9.4839 </r>
       <r>   -11.5593     0.1719     9.4857 </r>
       <r>   -11.5486     0.0237     9.4860 </r>
       <r>   -11.5379     1.2513     9.4993 </r>
       <r>   -11.5272     9.0258     9.5959 </r>
       <r>   -11.5165     9.5479     9.6980 </r>
       <r>   -11.5058     1.4876     9.7140 </r>
       <r>   -11.4951     0.0363     9.7143 </r>
       <r>   -11.4844     0.6965     9.7218 </r>
       <r>   -11.4737    10.7089     9.8364 </r>
       <r>   -11.4630    23.3453    10.0861 </r>
       <r>   -11.4523     7.8718    10.1703 </r>
       <r>   -11.4416     4.8614    10.2223 </r>
       <r>   -11.4309    11.7664    10.3482 </r>
       <r>   -11.4202     4.5898    10.3973 </r>
       <r>   -11.4096     0.2788    10.4003 </r>
       <r>   -11.3989     1.0475    10.4115 </r>
       <r>   -11.3882     5.2582    10.4677 </r>
       <r>   -11.3775     4.0969    10.5116 </r>
       <r>   -11.3668     4.2707    10.5573 </r>
       <r>   -11.3561    11.6917    10.6823 </r>
       <r>   -11.3454     5.3133    10.7392 </r>
       <r>   -11.3347     0.3416    10.7428 </r>
       <r>   -11.3240     0.0135    10.7430 </r>
       <r>   -11.3133     0.8860    10.7525 </r>
       <r>   -11.3026     9.8023    10.8573 </r>
       <r>   -11.2919    16.6168    11.0351 </r>
       <r>   -11.2812     4.5447    11.0837 </r>
       <r>   -11.2705     0.1874    11.0857 </r>
       <r>   -11.2598     0.0010    11.0857 </r>
       <r>   -11.2491     0.0000    11.0857 </r>
       <r>   -11.2384     0.0085    11.0858 </r>
       <r>   -11.2277     0.6941    11.0932 </r>
       <r>   -11.2170     7.3133    11.1715 </r>
       <r>   -11.2063    12.6910    11.3072 </r>
       <r>   -11.1956     9.6796    11.4108 </r>
       <r>   -11.1849    12.3857    11.5433 </r>
       <r>   -11.1742     9.3813    11.6436 </r>
       <r>   -11.1635     2.9405    11.6751 </r>
       <r>   -11.1528     7.9996    11.7607 </r>
       <r>   -11.1421     9.0514    11.8575 </r>
       <r>   -11.1314     2.5114    11.8844 </r>
       <r>   -11.1207     0.1239    11.8857 </r>
       <r>   -11.1100     0.0008    11.8857 </r>
       <r>   -11.0993     0.0000    11.8857 </r>
       <r>   -11.0886     0.0000    11.8857 </r>
       <r>   -11.0779     0.0000    11.8857 </r>
       <r>   -11.0672     0.0000    11.8857 </r>
       <r>   -11.0565     0.0000    11.8857 </r>
       <r>   -11.0458     0.0000    11.8857 </r>
       <r>   -11.0351     0.0000    11.8857 </r>
       <r>   -11.0244     0.0000    11.8857 </r>
       <r>   -11.0137     0.0000    11.8857 </r>
       <r>   -11.0030     0.0000    11.8857 </r>
       <r>   -10.9923     0.0177    11.8859 </r>
       <r>   -10.9816     0.8071    11.8945 </r>
       <r>   -10.9709     4.8947    11.9469 </r>
       <r>   -10.9602     4.3801    11.9938 </r>
       <r>   -10.9495     0.5736    11.9999 </r>
       <r>   -10.9388     0.0098    12.0000 </r>
       <r>   -10.9281     0.0000    12.0000 </r>
       <r>   -10.9174     0.0000    12.0000 </r>
       <r>   -10.9068     0.0000    12.0000 </r>
       <r>   -10.8961     0.0000    12.0000 </r>
       <r>   -10.8854     0.0000    12.0000 </r>
       <r>   -10.8747     0.0000    12.0000 </r>
       <r>   -10.8640     0.0000    12.0000 </r>
       <r>   -10.8533     0.0000    12.0000 </r>
       <r>   -10.8426     0.0000    12.0000 </r>
       <r>   -10.8319     0.0000    12.0000 </r>
       <r>   -10.8212     0.0000    12.0000 </r>
       <r>   -10.8105     0.0000    12.0000 </r>
       <r>   -10.7998     0.0000    12.0000 </r>
       <r>   -10.7891     0.0000    12.0000 </r>
       <r>   -10.7784     0.0000    12.0000 </r>
       <r>   -10.7677     0.0000    12.0000 </r>
       <r>   -10.7570     0.0000    12.0000 </r>
       <r>   -10.7463     0.0000    12.0000 </r>
       <r>   -10.7356     0.0000    12.0000 </r>
       <r>   -10.7249     0.0000    12.0000 </r>
       <r>   -10.7142     0.0000    12.0000 </r>
       <r>   -10.7035     0.0000    12.0000 </r>
       <r>   -10.6928     0.0000    12.0000 </r>
       <r>   -10.6821     0.0000    12.0000 </r>
       <r>   -10.6714     0.0000    12.0000 </r>
       <r>   -10.6607     0.0000    12.0000 </r>
       <r>   -10.6500     0.0000    12.0000 </r>
       <r>   -10.6393     0.0000    12.0000 </r>
       <r>   -10.6286     0.0000    12.0000 </r>
       <r>   -10.6179     0.0000    12.0000 </r>
       <r>   -10.6072     0.0000    12.0000 </r>
       <r>   -10.5965     0.0000    12.0000 </r>
       <r>   -10.5858     0.0000    12.0000 </r>
       <r>   -10.5751     0.0000    12.0000 </r>
       <r>   -10.5644     0.0000    12.0000 </r>
       <r>   -10.5537     0.0000    12.0000 </r>
       <r>   -10.5430     0.0000    12.0000 </r>
       <r>   -10.5323     0.0000    12.0000 </r>
       <r>   -10.5216     0.0000    12.0000 </r>
       <r>   -10.5109     0.0000    12.0000 </r>
       <r>   -10.5002     0.0000    12.0000 </r>
       <r>   -10.4895     0.0000    12.0000 </r>
       <r>   -10.4788     0.0000    12.0000 </r>
       <r>   -10.4681     0.0000    12.0000 </r>
       <r>   -10.4574     0.0000    12.0000 </r>
       <r>   -10.4467     0.0000    12.0000 </r>
       <r>   -10.4360     0.0000    12.0000 </r>
       <r>   -10.4253     0.0000    12.0000 </r>
       <r>   -10.4146     0.0000    12.0000 </r>
       <r>   -10.4039     0.0000    12.0000 </r>
       <r>   -10.3933     0.0000    12.0000 </r>
       <r>   -10.3826     0.0000    12.0000 </r>
       <r>   -10.3719     0.0000    12.0000 </r>
       <r>   -10.3612     0.0000    12.0000 </r>
       <r>   -10.3505     0.0000    12.0000 </r>
       <r>   -10.3398     0.0000    12.0000 </r>
       <r>   -10.3291     0.0000    12.0000 </r>
       <r>   -10.3184     0.0000    12.0000 </r>
       <r>   -10.3077     0.0000    12.0000 </r>
       <r>   -10.2970     0.0000    12.0000 </r>
       <r>   -10.2863     0.0000    12.0000 </r>
       <r>   -10.2756     0.0000    12.0000 </r>
       <r>   -10.2649     0.0000    12.0000 </r>
       <r>   -10.2542     0.0000    12.0000 </r>
       <r>   -10.2435     0.0000    12.0000 </r>
       <r>   -10.2328     0.0000    12.0000 </r>
       <r>   -10.2221     0.0000    12.0000 </r>
       <r>   -10.2114     0.0000    12.0000 </r>
       <r>   -10.2007     0.0035    12.0000 </r>
       <r>   -10.1900     0.3096    12.0033 </r>
       <r>   -10.1793     3.4544    12.0403 </r>
       <r>   -10.1686     5.5456    12.0996 </r>
       <r>   -10.1579     1.3267    12.1138 </r>
       <r>   -10.1472     0.0431    12.1143 </r>
       <r>   -10.1365     0.0002    12.1143 </r>
       <r>   -10.1258     0.0000    12.1143 </r>
       <r>   -10.1151     0.0000    12.1143 </r>
       <r>   -10.1044     0.0000    12.1143 </r>
       <r>   -10.0937     0.0000    12.1143 </r>
       <r>   -10.0830     0.0003    12.1143 </r>
       <r>   -10.0723     0.0708    12.1150 </r>
       <r>   -10.0616     2.3842    12.1406 </r>
       <r>   -10.0509    10.8455    12.2566 </r>
       <r>   -10.0402     7.3388    12.3351 </r>
       <r>   -10.0295     0.7174    12.3428 </r>
       <r>   -10.0188     0.0090    12.3429 </r>
       <r>   -10.0081     0.0000    12.3429 </r>
       <r>    -9.9974     0.0000    12.3429 </r>
       <r>    -9.9867     0.0000    12.3429 </r>
       <r>    -9.9760     0.0000    12.3429 </r>
       <r>    -9.9653     0.0034    12.3429 </r>
       <r>    -9.9546     0.3037    12.3461 </r>
       <r>    -9.9439     3.4270    12.3828 </r>
       <r>    -9.9332     5.5600    12.4423 </r>
       <r>    -9.9225     1.3445    12.4567 </r>
       <r>    -9.9118     0.0442    12.4571 </r>
       <r>    -9.9011     0.0002    12.4571 </r>
       <r>    -9.8905     0.0000    12.4571 </r>
       <r>    -9.8798     0.0041    12.4572 </r>
       <r>    -9.8691     0.4382    12.4619 </r>
       <r>    -9.8584     5.9514    12.5255 </r>
       <r>    -9.8477    11.5114    12.6487 </r>
       <r>    -9.8370     3.3280    12.6843 </r>
       <r>    -9.8263     0.1323    12.6857 </r>
       <r>    -9.8156     0.0006    12.6857 </r>
       <r>    -9.8049     0.0000    12.6857 </r>
       <r>    -9.7942     0.0049    12.6858 </r>
       <r>    -9.7835     0.3793    12.6898 </r>
       <r>    -9.7728     3.7953    12.7304 </r>
       <r>    -9.7621     6.7092    12.8022 </r>
       <r>    -9.7514     6.6981    12.8739 </r>
       <r>    -9.7407     3.5604    12.9119 </r>
       <r>    -9.7300     3.0250    12.9443 </r>
       <r>    -9.7193    11.1470    13.0636 </r>
       <r>    -9.7086     6.8157    13.1365 </r>
       <r>    -9.6979     1.0803    13.1480 </r>
       <r>    -9.6872     4.4085    13.1952 </r>
       <r>    -9.6765     8.5158    13.2863 </r>
       <r>    -9.6658     6.5233    13.3561 </r>
       <r>    -9.6551     1.3896    13.3709 </r>
       <r>    -9.6444     0.0611    13.3716 </r>
       <r>    -9.6337     0.9959    13.3822 </r>
       <r>    -9.6230     8.3271    13.4713 </r>
       <r>    -9.6123    10.1520    13.5799 </r>
       <r>    -9.6016     1.8315    13.5995 </r>
       <r>    -9.5909     0.0445    13.6000 </r>
       <r>    -9.5802     0.0943    13.6010 </r>
       <r>    -9.5695     2.7818    13.6308 </r>
       <r>    -9.5588    11.1911    13.7505 </r>
       <r>    -9.5481     6.7138    13.8223 </r>
       <r>    -9.5374     0.5783    13.8285 </r>
       <r>    -9.5267     0.0066    13.8286 </r>
       <r>    -9.5160     0.0640    13.8293 </r>
       <r>    -9.5053     2.2559    13.8534 </r>
       <r>    -9.4946    10.7093    13.9680 </r>
       <r>    -9.4839     7.5549    14.0488 </r>
       <r>    -9.4732     0.7715    14.0570 </r>
       <r>    -9.4625     0.0116    14.0572 </r>
       <r>    -9.4518     0.2800    14.0602 </r>
       <r>    -9.4411     6.7683    14.1326 </r>
       <r>    -9.4304    22.9534    14.3781 </r>
       <r>    -9.4197    11.8354    14.5047 </r>
       <r>    -9.4090     0.8850    14.5142 </r>
       <r>    -9.3983     0.0085    14.5143 </r>
       <r>    -9.3877     0.0000    14.5143 </r>
       <r>    -9.3770     0.0033    14.5143 </r>
       <r>    -9.3663     0.3861    14.5185 </r>
       <r>    -9.3556     5.6214    14.5786 </r>
       <r>    -9.3449    11.6129    14.7028 </r>
       <r>    -9.3342     3.5883    14.7412 </r>
       <r>    -9.3235     0.1531    14.7428 </r>
       <r>    -9.3128     0.0008    14.7429 </r>
       <r>    -9.3021     0.0000    14.7429 </r>
       <r>    -9.2914     0.0000    14.7429 </r>
       <r>    -9.2807     0.0000    14.7429 </r>
       <r>    -9.2700     0.0000    14.7429 </r>
       <r>    -9.2593     0.0000    14.7429 </r>
       <r>    -9.2486     0.0000    14.7429 </r>
       <r>    -9.2379     0.0000    14.7429 </r>
       <r>    -9.2272     0.0000    14.7429 </r>
       <r>    -9.2165     0.0000    14.7429 </r>
       <r>    -9.2058     0.0000    14.7429 </r>
       <r>    -9.1951     0.0000    14.7429 </r>
       <r>    -9.1844     0.0000    14.7429 </r>
       <r>    -9.1737     0.0000    14.7429 </r>
       <r>    -9.1630     0.0000    14.7429 </r>
       <r>    -9.1523     0.0000    14.7429 </r>
       <r>    -9.1416     0.0000    14.7429 </r>
       <r>    -9.1309     0.0000    14.7429 </r>
       <r>    -9.1202     0.0000    14.7429 </r>
       <r>    -9.1095     0.0000    14.7429 </r>
       <r>    -9.0988     0.0000    14.7429 </r>
       <r>    -9.0881     0.0000    14.7429 </r>
       <r>    -9.0774     0.0000    14.7429 </r>
       <r>    -9.0667     0.0000    14.7429 </r>
       <r>    -9.0560     0.0000    14.7429 </r>
       <r>    -9.0453     0.0000    14.7429 </r>
       <r>    -9.0346     0.0000    14.7429 </r>
       <r>    -9.0239     0.0000    14.7429 </r>
       <r>    -9.0132     0.0000    14.7429 </r>
       <r>    -9.0025     0.0055    14.7429 </r>
       <r>    -8.9918     0.5288    14.7486 </r>
       <r>    -8.9811     6.5559    14.8187 </r>
       <r>    -8.9704    14.1200    14.9698 </r>
       <r>    -8.9597    14.1694    15.1213 </r>
       <r>    -8.9490     7.1251    15.1976 </r>
       <r>    -8.9383     7.0210    15.2727 </r>
       <r>    -8.9276    17.8320    15.4634 </r>
       <r>    -8.9169    11.3189    15.5845 </r>
       <r>    -8.9062     9.6002    15.6872 </r>
       <r>    -8.8955    21.6404    15.9187 </r>
       <r>    -8.8848    16.4630    16.0949 </r>
       <r>    -8.8742     4.7954    16.1462 </r>
[...]
        <r>  0.0101  0.0116  0.0179  0.0104  0.0000  0.0000  0.0000  0.0000  0.0000 </r>
        <r>  0.0101  0.0116  0.0179  0.0104  0.0000  0.0000  0.0000  0.0000  0.0000 </r>
        <r>  0.0101  0.0116  0.0179  0.0104  0.0000  0.0000  0.0000  0.0000  0.0000 </r>
        <r>  0.0101  0.0116  0.0179  0.0104  0.0000  0.0000  0.0000  0.0000  0.0000 </r>
        <r>  0.0064  0.0064  0.0136  0.0080  0.0000  0.0000  0.0000  0.0000  0.0000 </r>
        <r>  0.0064  0.0064  0.0136  0.0080  0.0000  0.0000  0.0000  0.0000  0.0000 </r>
        <r>  0.0068  0.0103  0.0103  0.0060  0.0000  0.0000  0.0000  0.0000  0.0000 </r>
        <r>  0.0068  0.0103  0.0103  0.0060  0.0000  0.0000  0.0000  0.0000  0.0000 </r>
       </set>
       <set comment="band 25">
        <r>  0.0038  0.0120  0.0040  0.0038  0.0000  0.0000  0.0000  0.0000  0.0000 </r>
        <r>  0.0038  0.0120  0.0040  0.0038  0.0000  0.0000  0.0000  0.0000  0.0000 </r>
        <r>  0.0011  0.0157  0.0043  0.0028  0.0000  0.0000  0.0000  0.0000  0.0000 </r>
        <r>  0.0011  0.0157  0.0043  0.0028  0.0000  0.0000  0.0000  0.0000  0.0000 </r>
        <r>  0.0052  0.0333  0.0074  0.0061  0.0000  0.0000  0.0000  0.0000  0.0000 </r>
        <r>  0.0052  0.0333  0.0074  0.0061  0.0000  0.0000  0.0000  0.0000  0.0000 </r>
        <r>  0.0052  0.0333  0.0074  0.0061  0.0000  0.0000  0.0000  0.0000  0.0000 </r>
        <r>  0.0052  0.0333  0.0074  0.0061  0.0000  0.0000  0.0000  0.0000  0.0000 </r>
        <r>  0.0011  0.0157  0.0043  0.0028  0.0000  0.0000  0.0000  0.0000  0.0000 </r>
        <r>  0.0011  0.0157  0.0043  0.0028  0.0000  0.0000  0.0000  0.0000  0.0000 </r>
        <r>  0.0038  0.0120  0.0040  0.0038  0.0000  0.0000  0.0000  0.0000  0.0000 </r>
        <r>  0.0038  0.0120  0.0040  0.0038  0.0000  0.0000  0.0000  0.0000  0.0000 </r>
       </set>
       <set comment="band 26">
        <r>  0.0048  0.0379  0.0054  0.0046  0.0000  0.0000  0.0000  0.0000  0.0000 </r>
        <r>  0.0048  0.0379  0.0054  0.0046  0.0000  0.0000  0.0000  0.0000  0.0000 </r>
        <r>  0.0050  0.0266  0.0038  0.0036  0.0000  0.0000  0.0000  0.0000  0.0000 </r>
        <r>  0.0050  0.0266  0.0038  0.0036  0.0000  0.0000  0.0000  0.0000  0.0000 </r>
        <r>  0.0014  0.0064  0.0052  0.0037  0.0000  0.0000  0.0000  0.0000  0.0000 </r>
        <r>  0.0014  0.0064  0.0052  0.0037  0.0000  0.0000  0.0000  0.0000  0.0000 </r>
        <r>  0.0014  0.0064  0.0052  0.0037  0.0000  0.0000  0.0000  0.0000  0.0000 </r>
        <r>  0.0014  0.0064  0.0052  0.0037  0.0000  0.0000  0.0000  0.0000  0.0000 </r>
        <r>  0.0050  0.0266  0.0038  0.0036  0.0000  0.0000  0.0000  0.0000  0.0000 </r>
        <r>  0.0050  0.0266  0.0038  0.0036  0.0000  0.0000  0.0000  0.0000  0.0000 </r>
        <r>  0.0048  0.0379  0.0054  0.0046  0.0000  0.0000  0.0000  0.0000  0.0000 </r>
        <r>  0.0048  0.0379  0.0054  0.0046  0.0000  0.0000  0.0000  0.0000  0.0000 </r>
       </set>
       <set comment="band 27">
        <r>  0.0036  0.0126  0.0041  0.0034  0.0000  0.0000  0.0000  0.0000  0.0000 </r>
        <r>  0.0036  0.0126  0.0041  0.0034  0.0000  0.0000  0.0000  0.0000  0.0000 </r>
        <r>  0.0017  0.0236  0.0056  0.0039  0.0000  0.0000  0.0000  0.0000  0.0000 </r>
        <r>  0.0017  0.0236  0.0056  0.0039  0.0000  0.0000  0.0000  0.0000  0.0000 </r>
        <r>  0.0053  0.0403  0.0040  0.0033  0.0000  0.0000  0.0000  0.0000  0.0000 </r>
        <r>  0.0053  0.0403  0.0040  0.0033  0.0000  0.0000  0.0000  0.0000  0.0000 </r>
        <r>  0.0053  0.0403  0.0040  0.0033  0.0000  0.0000  0.0000  0.0000  0.0000 </r>
        <r>  0.0053  0.0403  0.0040  0.0033  0.0000  0.0000  0.0000  0.0000  0.0000 </r>
        <r>  0.0017  0.0236  0.0056  0.0039  0.0000  0.0000  0.0000  0.0000  0.0000 </r>
        <r>  0.0017  0.0236  0.0056  0.0039  0.0000  0.0000  0.0000  0.0000  0.0000 </r>
        <r>  0.0036  0.0126  0.0041  0.0034  0.0000  0.0000  0.0000  0.0000  0.0000 </r>
        <r>  0.0036  0.0126  0.0041  0.0034  0.0000  0.0000  0.0000  0.0000  0.0000 </r>
       </set>
       <set comment="band 28">
        <r>  0.0036  0.0326  0.0065  0.0045  0.0000  0.0000  0.0000  0.0000  0.0000 </r>
        <r>  0.0036  0.0326  0.0065  0.0045  0.0000  0.0000  0.0000  0.0000  0.0000 </r>
        <r>  0.0046  0.0195  0.0058  0.0054  0.0000  0.0000  0.0000  0.0000  0.0000 </r>
        <r>  0.0046  0.0195  0.0058  0.0054  0.0000  0.0000  0.0000  0.0000  0.0000 </r>
        <r>  0.0042  0.0277  0.0015  0.0018  0.0000  0.0000  0.0000  0.0000  0.0000 </r>
        <r>  0.0042  0.0277  0.0015  0.0018  0.0000  0.0000  0.0000  0.0000  0.0000 </r>
        <r>  0.0042  0.0277  0.0015  0.0018  0.0000  0.0000  0.0000  0.0000  0.0000 </r>
        <r>  0.0042  0.0277  0.0015  0.0018  0.0000  0.0000  0.0000  0.0000  0.0000 </r>
        <r>  0.0046  0.0195  0.0058  0.0054  0.0000  0.0000  0.0000  0.0000  0.0000 </r>
        <r>  0.0046  0.0195  0.0058  0.0054  0.0000  0.0000  0.0000  0.0000  0.0000 </r>
        <r>  0.0036  0.0326  0.0065  0.0045  0.0000  0.0000  0.0000  0.0000  0.0000 </r>
        <r>  0.0036  0.0326  0.0065  0.0045  0.0000  0.0000  0.0000  0.0000  0.0000 </r>
       </set>
       <set comment="band 29">
        <r>  0.0043  0.0224  0.0058  0.0043  0.0000  0.0000  0.0000  0.0000  0.0000 </r>
        <r>  0.0043  0.0224  0.0058  0.0043  0.0000  0.0000  0.0000  0.0000  0.0000 </r>
        <r>  0.0028  0.0229  0.0045  0.0039  0.0000  0.0000  0.0000  0.0000  0.0000 </r>
        <r>  0.0028  0.0229  0.0045  0.0039  0.0000  0.0000  0.0000  0.0000  0.0000 </r>
        <r>  0.0047  0.0288  0.0058  0.0048  0.0000  0.0000  0.0000  0.0000  0.0000 </r>
        <r>  0.0047  0.0288  0.0058  0.0048  0.0000  0.0000  0.0000  0.0000  0.0000 </r>
        <r>  0.0047  0.0288  0.0058  0.0048  0.0000  0.0000  0.0000  0.0000  0.0000 </r>
        <r>  0.0047  0.0288  0.0058  0.0048  0.0000  0.0000  0.0000  0.0000  0.0000 </r>
        <r>  0.0028  0.0229  0.0045  0.0039  0.0000  0.0000  0.0000  0.0000  0.0000 </r>
        <r>  0.0028  0.0229  0.0045  0.0039  0.0000  0.0000  0.0000  0.0000  0.0000 </r>
        <r>  0.0043  0.0224  0.0058  0.0043  0.0000  0.0000  0.0000  0.0000  0.0000 </r>
        <r>  0.0043  0.0224  0.0058  0.0043  0.0000  0.0000  0.0000  0.0000  0.0000 </r>
       </set>
       <set comment="band 30">
        <r>  0.0048  0.0324  0.0044  0.0038  0.0000  0.0000  0.0000  0.0000  0.0000 </r>
        <r>  0.0048  0.0324  0.0044  0.0038  0.0000  0.0000  0.0000  0.0000  0.0000 </r>
        <r>  0.0054  0.0377  0.0044  0.0037  0.0000  0.0000  0.0000  0.0000  0.0000 </r>
        <r>  0.0054  0.0377  0.0044  0.0037  0.0000  0.0000  0.0000  0.0000  0.0000 </r>
        <r>  0.0016  0.0093  0.0059  0.0045  0.0000  0.0000  0.0000  0.0000  0.0000 </r>
        <r>  0.0016  0.0093  0.0059  0.0045  0.0000  0.0000  0.0000  0.0000  0.0000 </r>
        <r>  0.0016  0.0093  0.0059  0.0045  0.0000  0.0000  0.0000  0.0000  0.0000 </r>
        <r>  0.0016  0.0093  0.0059  0.0045  0.0000  0.0000  0.0000  0.0000  0.0000 </r>
        <r>  0.0054  0.0377  0.0044  0.0037  0.0000  0.0000  0.0000  0.0000  0.0000 </r>
        <r>  0.0054  0.0377  0.0044  0.0037  0.0000  0.0000  0.0000  0.0000  0.0000 </r>
        <r>  0.0048  0.0324  0.0044  0.0038  0.0000  0.0000  0.0000  0.0000  0.0000 </r>
        <r>  0.0048  0.0324  0.0044  0.0038  0.0000  0.0000  0.0000  0.0000  0.0000 </r>
       </set>
       <set comment="band 31">
        <r>  0.0038  0.0182  0.0002  0.0016  0.0000  0.0000  0.0000  0.0000  0.0000 </r>
        <r>  0.0038  0.0182  0.0002  0.0016  0.0000  0.0000  0.0000  0.0000  0.0000 </r>
        <r>  0.0083  0.0086  0.0014  0.0026  0.0000  0.0000  0.0000  0.0000  0.0000 </r>
        <r>  0.0083  0.0086  0.0014  0.0026  0.0000  0.0000  0.0000  0.0000  0.0000 </r>
        <r>  0.0111  0.0282  0.0009  0.0043  0.0000  0.0000  0.0000  0.0000  0.0000 </r>
        <r>  0.0111  0.0282  0.0009  0.0043  0.0000  0.0000  0.0000  0.0000  0.0000 </r>
        <r>  0.0111  0.0282  0.0009  0.0043  0.0000  0.0000  0.0000  0.0000  0.0000 </r>
        <r>  0.0111  0.0282  0.0009  0.0043  0.0000  0.0000  0.0000  0.0000  0.0000 </r>
        <r>  0.0083  0.0086  0.0014  0.0026  0.0000  0.0000  0.0000  0.0000  0.0000 </r>
        <r>  0.0083  0.0086  0.0014  0.0026  0.0000  0.0000  0.0000  0.0000  0.0000 </r>
        <r>  0.0038  0.0182  0.0002  0.0016  0.0000  0.0000  0.0000  0.0000  0.0000 </r>
        <r>  0.0038  0.0182  0.0002  0.0016  0.0000  0.0000  0.0000  0.0000  0.0000 </r>
       </set>
       <set comment="band 32">
        <r>  0.0077  0.0213  0.0005  0.0039  0.0000  0.0000  0.0000  0.0000  0.0000 </r>
        <r>  0.0077  0.0213  0.0005  0.0039  0.0000  0.0000  0.0000  0.0000  0.0000 </r>
        <r>  0.0061  0.0284  0.0001  0.0024  0.0000  0.0000  0.0000  0.0000  0.0000 </r>
        <r>  0.0061  0.0284  0.0001  0.0024  0.0000  0.0000  0.0000  0.0000  0.0000 </r>
        <r>  0.0033  0.0034  0.0006  0.0002  0.0000  0.0000  0.0000  0.0000  0.0000 </r>
        <r>  0.0033  0.0034  0.0006  0.0002  0.0000  0.0000  0.0000  0.0000  0.0000 </r>
        <r>  0.0033  0.0034  0.0006  0.0002  0.0000  0.0000  0.0000  0.0000  0.0000 </r>
        <r>  0.0033  0.0034  0.0006  0.0002  0.0000  0.0000  0.0000  0.0000  0.0000 </r>
        <r>  0.0061  0.0284  0.0001  0.0024  0.0000  0.0000  0.0000  0.0000  0.0000 </r>
        <r>  0.0061  0.0284  0.0001  0.0024  0.0000  0.0000  0.0000  0.0000  0.0000 </r>
        <r>  0.0077  0.0213  0.0005  0.0039  0.0000  0.0000  0.0000  0.0000  0.0000 </r>
        <r>  0.0077  0.0213  0.0005  0.0039  0.0000  0.0000  0.0000  0.0000  0.0000 </r>
       </set>
       <set comment="band 33">
        <r>  0.0027  0.0094  0.0009  0.0006  0.0000  0.0000  0.0000  0.0000  0.0000 </r>
        <r>  0.0027  0.0094  0.0009  0.0006  0.0000  0.0000  0.0000  0.0000  0.0000 </r>
        <r>  0.0033  0.0110  0.0009  0.0004  0.0000  0.0000  0.0000  0.0000  0.0000 </r>
        <r>  0.0033  0.0110  0.0009  0.0004  0.0000  0.0000  0.0000  0.0000  0.0000 </r>
        <r>  0.0076  0.0331  0.0016  0.0017  0.0000  0.0000  0.0000  0.0000  0.0000 </r>
        <r>  0.0076  0.0331  0.0016  0.0017  0.0000  0.0000  0.0000  0.0000  0.0000 </r>
        <r>  0.0076  0.0331  0.0016  0.0017  0.0000  0.0000  0.0000  0.0000  0.0000 </r>
        <r>  0.0076  0.0331  0.0016  0.0017  0.0000  0.0000  0.0000  0.0000  0.0000 </r>
        <r>  0.0033  0.0110  0.0009  0.0004  0.0000  0.0000  0.0000  0.0000  0.0000 </r>
        <r>  0.0033  0.0110  0.0009  0.0004  0.0000  0.0000  0.0000  0.0000  0.0000 </r>
        <r>  0.0027  0.0094  0.0009  0.0006  0.0000  0.0000  0.0000  0.0000  0.0000 </r>
        <r>  0.0027  0.0094  0.0009  0.0006  0.0000  0.0000  0.0000  0.0000  0.0000 </r>
       </set>
       <set comment="band 34">
        <r>  0.0046  0.0370  0.0005  0.0006  0.0000  0.0000  0.0000  0.0000  0.0000 </r>
        <r>  0.0046  0.0370  0.0005  0.0006  0.0000  0.0000  0.0000  0.0000  0.0000 </r>
        <r>  0.0099  0.0120  0.0015  0.0039  0.0000  0.0000  0.0000  0.0000  0.0000 </r>
        <r>  0.0099  0.0120  0.0015  0.0039  0.0000  0.0000  0.0000  0.0000  0.0000 </r>
        <r>  0.0004  0.0066  0.0001  0.0008  0.0000  0.0000  0.0000  0.0000  0.0000 </r>
        <r>  0.0004  0.0066  0.0001  0.0008  0.0000  0.0000  0.0000  0.0000  0.0000 </r>
        <r>  0.0004  0.0066  0.0001  0.0008  0.0000  0.0000  0.0000  0.0000  0.0000 </r>
        <r>  0.0004  0.0066  0.0001  0.0008  0.0000  0.0000  0.0000  0.0000  0.0000 </r>
        <r>  0.0099  0.0120  0.0015  0.0039  0.0000  0.0000  0.0000  0.0000  0.0000 </r>
        <r>  0.0099  0.0120  0.0015  0.0039  0.0000  0.0000  0.0000  0.0000  0.0000 </r>
        <r>  0.0046  0.0370  0.0005  0.0006  0.0000  0.0000  0.0000  0.0000  0.0000 </r>
        <r>  0.0046  0.0370  0.0005  0.0006  0.0000  0.0000  0.0000  0.0000  0.0000 </r>
       </set>
       <set comment="band 35">
        <r>  0.0055  0.0062  0.0024  0.0022  0.0000  0.0000  0.0000  0.0000  0.0000 </r>
        <r>  0.0055  0.0062  0.0024  0.0022  0.0000  0.0000  0.0000  0.0000  0.0000 </r>
        <r>  0.0008  0.0318  0.0008  0.0001  0.0000  0.0000  0.0000  0.0000  0.0000 </r>
        <r>  0.0008  0.0318  0.0008  0.0001  0.0000  0.0000  0.0000  0.0000  0.0000 </r>
        <r>  0.0062  0.0199  0.0059  0.0009  0.0000  0.0000  0.0000  0.0000  0.0000 </r>
        <r>  0.0062  0.0199  0.0059  0.0009  0.0000  0.0000  0.0000  0.0000  0.0000 </r>
        <r>  0.0062  0.0199  0.0059  0.0009  0.0000  0.0000  0.0000  0.0000  0.0000 </r>
        <r>  0.0062  0.0199  0.0059  0.0009  0.0000  0.0000  0.0000  0.0000  0.0000 </r>
        <r>  0.0008  0.0318  0.0008  0.0001  0.0000  0.0000  0.0000  0.0000  0.0000 </r>
        <r>  0.0008  0.0318  0.0008  0.0001  0.0000  0.0000  0.0000  0.0000  0.0000 </r>
        <r>  0.0055  0.0062  0.0024  0.0022  0.0000  0.0000  0.0000  0.0000  0.0000 </r>
        <r>  0.0055  0.0062  0.0024  0.0022  0.0000  0.0000  0.0000  0.0000  0.0000 </r>
       </set>
       <set comment="band 36">
        <r>  0.0039  0.0281  0.0001  0.0016  0.0000  0.0000  0.0000  0.0000  0.0000 </r>
        <r>  0.0039  0.0281  0.0001  0.0016  0.0000  0.0000  0.0000  0.0000  0.0000 </r>
        <r>  0.0079  0.0164  0.0043  0.0026  0.0000  0.0000  0.0000  0.0000  0.0000 </r>
        <r>  0.0079  0.0164  0.0043  0.0026  0.0000  0.0000  0.0000  0.0000  0.0000 </r>
        <r>  0.0056  0.0223  0.0021  0.0033  0.0000  0.0000  0.0000  0.0000  0.0000 </r>
        <r>  0.0056  0.0223  0.0021  0.0033  0.0000  0.0000  0.0000  0.0000  0.0000 </r>
        <r>  0.0056  0.0223  0.0021  0.0033  0.0000  0.0000  0.0000  0.0000  0.0000 </r>
        <r>  0.0056  0.0223  0.0021  0.0033  0.0000  0.0000  0.0000  0.0000  0.0000 </r>
        <r>  0.0079  0.0164  0.0043  0.0026  0.0000  0.0000  0.0000  0.0000  0.0000 </r>
        <r>  0.0079  0.0164  0.0043  0.0026  0.0000  0.0000  0.0000  0.0000  0.0000 </r>
        <r>  0.0039  0.0281  0.0001  0.0016  0.0000  0.0000  0.0000  0.0000  0.0000 </r>
        <r>  0.0039  0.0281  0.0001  0.0016  0.0000  0.0000  0.0000  0.0000  0.0000 </r>
       </set>
       <set comment="band 37">
        <r>  0.0014  0.0002  0.0084  0.0068  0.0000  0.0000  0.0000  0.0000  0.0000 </r>
        <r>  0.0014  0.0002  0.0084  0.0068  0.0000  0.0000  0.0000  0.0000  0.0000 </r>
        <r>  0.0013  0.0021  0.0121  0.0060  0.0000  0.0000  0.0000  0.0000  0.0000 </r>
        <r>  0.0013  0.0021  0.0121  0.0060  0.0000  0.0000  0.0000  0.0000  0.0000 </r>
        <r>  0.0034  0.0008  0.0289  0.0177  0.0000  0.0000  0.0000  0.0000  0.0000 </r>
        <r>  0.0034  0.0008  0.0289  0.0177  0.0000  0.0000  0.0000  0.0000  0.0000 </r>
        <r>  0.0034  0.0008  0.0289  0.0177  0.0000  0.0000  0.0000  0.0000  0.0000 </r>
        <r>  0.0034  0.0008  0.0289  0.0177  0.0000  0.0000  0.0000  0.0000  0.0000 </r>
        <r>  0.0013  0.0021  0.0121  0.0060  0.0000  0.0000  0.0000  0.0000  0.0000 </r>
        <r>  0.0013  0.0021  0.0121  0.0060  0.0000  0.0000  0.0000  0.0000  0.0000 </r>
        <r>  0.0014  0.0002  0.0084  0.0068  0.0000  0.0000  0.0000  0.0000  0.0000 </r>
        <r>  0.0014  0.0002  0.0084  0.0068  0.0000  0.0000  0.0000  0.0000  0.0000 </r>
       </set>
       <set comment="band 38">
        <r>  0.0028  0.0006  0.0277  0.0118  0.0000  0.0000  0.0000  0.0000  0.0000 </r>
        <r>  0.0028  0.0006  0.0277  0.0118  0.0000  0.0000  0.0000  0.0000  0.0000 </r>
        <r>  0.0018  0.0001  0.0261  0.0134  0.0000  0.0000  0.0000  0.0000  0.0000 </r>
        <r>  0.0018  0.0001  0.0261  0.0134  0.0000  0.0000  0.0000  0.0000  0.0000 </r>
        <r>  0.0005  0.0008  0.0001  0.0001  0.0000  0.0000  0.0000  0.0000  0.0000 </r>
        <r>  0.0005  0.0008  0.0001  0.0001  0.0000  0.0000  0.0000  0.0000  0.0000 </r>
        <r>  0.0005  0.0008  0.0001  0.0001  0.0000  0.0000  0.0000  0.0000  0.0000 </r>
        <r>  0.0005  0.0008  0.0001  0.0001  0.0000  0.0000  0.0000  0.0000  0.0000 </r>
        <r>  0.0018  0.0001  0.0261  0.0134  0.0000  0.0000  0.0000  0.0000  0.0000 </r>
        <r>  0.0018  0.0001  0.0261  0.0134  0.0000  0.0000  0.0000  0.0000  0.0000 </r>
        <r>  0.0028  0.0006  0.0277  0.0118  0.0000  0.0000  0.0000  0.0000  0.0000 </r>
        <r>  0.0028  0.0006  0.0277  0.0118  0.0000  0.0000  0.0000  0.0000  0.0000 </r>
       </set>
       <set comment="band 39">
        <r>  0.0007  0.0008  0.0154  0.0057  0.0000  0.0000  0.0000  0.0000  0.0000 </r>
        <r>  0.0007  0.0008  0.0154  0.0057  0.0000  0.0000  0.0000  0.0000  0.0000 </r>
        <r>  0.0006  0.0014  0.0170  0.0058  0.0000  0.0000  0.0000  0.0000  0.0000 </r>
        <r>  0.0006  0.0014  0.0170  0.0058  0.0000  0.0000  0.0000  0.0000  0.0000 </r>
        <r>  0.0008  0.0014  0.0215  0.0081  0.0000  0.0000  0.0000  0.0000  0.0000 </r>
        <r>  0.0008  0.0014  0.0215  0.0081  0.0000  0.0000  0.0000  0.0000  0.0000 </r>
        <r>  0.0008  0.0014  0.0215  0.0081  0.0000  0.0000  0.0000  0.0000  0.0000 </r>
        <r>  0.0008  0.0014  0.0215  0.0081  0.0000  0.0000  0.0000  0.0000  0.0000 </r>
        <r>  0.0006  0.0014  0.0170  0.0058  0.0000  0.0000  0.0000  0.0000  0.0000 </r>
        <r>  0.0006  0.0014  0.0170  0.0058  0.0000  0.0000  0.0000  0.0000  0.0000 </r>
        <r>  0.0007  0.0008  0.0154  0.0057  0.0000  0.0000  0.0000  0.0000  0.0000 </r>
        <r>  0.0007  0.0008  0.0154  0.0057  0.0000  0.0000  0.0000  0.0000  0.0000 </r>
       </set>
       <set comment="band 40">
        <r>  0.0012  0.0008  0.0239  0.0104  0.0000  0.0000  0.0000  0.0000  0.0000 </r>
        <r>  0.0012  0.0011  0.0238  0.0110  0.0000  0.0000  0.0000  0.0000  0.0000 </r>
        <r>  0.0009  0.0012  0.0252  0.0121  0.0000  0.0000  0.0000  0.0000  0.0000 </r>
        <r>  0.0010  0.0010  0.0245  0.0123  0.0000  0.0000  0.0000  0.0000  0.0000 </r>
        <r>  0.0012  0.0010  0.0351  0.0155  0.0000  0.0000  0.0000  0.0000  0.0000 </r>
        <r>  0.0010  0.0009  0.0351  0.0156  0.0000  0.0000  0.0000  0.0000  0.0000 </r>
        <r>  0.0014  0.0003  0.0350  0.0144  0.0000  0.0000  0.0000  0.0000  0.0000 </r>
        <r>  0.0012  0.0014  0.0339  0.0148  0.0000  0.0000  0.0000  0.0000  0.0000 </r>
        <r>  0.0004  0.0002  0.0142  0.0053  0.0000  0.0000  0.0000  0.0000  0.0000 </r>
        <r>  0.0004  0.0009  0.0122  0.0062  0.0000  0.0000  0.0000  0.0000  0.0000 </r>
        <r>  0.0006  0.0006  0.0130  0.0051  0.0000  0.0000  0.0000  0.0000  0.0000 </r>
        <r>  0.0003  0.0002  0.0126  0.0058  0.0000  0.0000  0.0000  0.0000  0.0000 </r>
       </set>
      </set>
     </set>
    </set>
   </array>
  </projected>
 </calculation>
 <structure name="finalpos" >
  <crystal>
   <varray name="basis" >
    <v>       3.34288600       0.00000000       0.00000000 </v>
    <v>       0.00000000      32.60240900       0.00000000 </v>
    <v>       0.00000000       0.00000000       4.37483100 </v>
   </varray>
   <i name="volume">    476.79592902 </i>
   <varray name="rec_basis" >
    <v>       0.29914272       0.00000000       0.00000000 </v>
    <v>       0.00000000       0.03067258       0.00000000 </v>
    <v>       0.00000000       0.00000000       0.22858026 </v>
   </varray>
  </crystal>
  <varray name="positions" >
   <v>       0.00000000       0.30672600       0.91892400 </v>
   <v>       0.50000000       0.30672600       0.58107600 </v>
   <v>       0.00000000       0.37246700       0.08107600 </v>
   <v>       0.50000000       0.37246700       0.41892400 </v>
   <v>       0.50000000       0.46712900       0.91892400 </v>
   <v>       0.00000000       0.46712900       0.58107600 </v>
   <v>       0.50000000       0.53287100       0.08107600 </v>
   <v>       0.00000000       0.53287100       0.41892400 </v>
   <v>       0.00000000       0.62753300       0.91892400 </v>
   <v>       0.50000000       0.62753300       0.58107600 </v>
   <v>       0.00000000       0.69327400       0.08107600 </v>
   <v>       0.50000000       0.69327400       0.41892400 </v>
  </varray>
 </structure>
</modeling>
