Generic Input                           
   1.00000000000000     
     3.342886    0.000000    0.000000
     0.000000   27.372864    0.000000
     0.000000    0.000000    4.374831
   P 
     8
Direct
  0.000000  0.365325  0.918924
  0.500000  0.365325  0.581076
  0.000000  0.443626  0.081076
  0.500000  0.443626  0.418924
  0.000000  0.556374  0.918924
  0.500000  0.556374  0.581076
  0.000000  0.634675  0.081076
  0.500000  0.634675  0.418924
 
   32  252   40
 0.15022E-02 0.14159E-02 0.11867E-02 0.88885E-03 0.60707E-03 0.40121E-03 0.28943E-03 0.25402E-03 0.26141E-03 0.28190E-03
 0.29920E-03 0.30927E-03 0.31401E-03 0.31612E-03 0.31707E-03 0.31745E-03 0.31754E-03 0.31745E-03 0.31707E-03 0.31612E-03
 0.31401E-03 0.30927E-03 0.29920E-03 0.28190E-03 0.26141E-03 0.25402E-03 0.28943E-03 0.40121E-03 0.60707E-03 0.88885E-03
 0.11867E-02 0.14159E-02 0.33828E-03 0.33690E-03 0.33320E-03 0.32833E-03 0.32368E-03 0.32024E-03 0.31835E-03 0.31768E-03
 0.31768E-03 0.31790E-03 0.31809E-03 0.31817E-03 0.31816E-03 0.31812E-03 0.31812E-03 0.31816E-03 0.31818E-03 0.31816E-03
 0.31812E-03 0.31812E-03 0.31816E-03 0.31817E-03 0.31809E-03 0.31790E-03 0.31768E-03 0.31768E-03 0.31835E-03 0.32024E-03
 0.32368E-03 0.32833E-03 0.33320E-03 0.33690E-03 -.86513E-03 -.77885E-03 -.54965E-03 -.25195E-03 0.29720E-04 0.23555E-03
 0.34740E-03 0.38292E-03 0.37560E-03 0.35515E-03 0.33786E-03 0.32777E-03 0.32294E-03 0.32073E-03 0.31973E-03 0.31938E-03
 0.31931E-03 0.31938E-03 0.31973E-03 0.32073E-03 0.32294E-03 0.32777E-03 0.33786E-03 0.35515E-03 0.37560E-03 0.38292E-03
 0.34740E-03 0.23555E-03 0.29720E-04 -.25195E-03 -.54965E-03 -.77885E-03 0.26033E-03 0.26445E-03 0.27544E-03 0.28980E-03
 0.30351E-03 0.31370E-03 0.31946E-03 0.32163E-03 0.32178E-03 0.32126E-03 0.32079E-03 0.32055E-03 0.32047E-03 0.32041E-03
 0.32030E-03 0.32018E-03 0.32012E-03 0.32018E-03 0.32030E-03 0.32041E-03 0.32047E-03 0.32055E-03 0.32079E-03 0.32126E-03
 0.32178E-03 0.32163E-03 0.31946E-03 0.31370E-03 0.30351E-03 0.28980E-03 0.27544E-03 0.26445E-03 0.15064E-02 0.14201E-02
 0.11908E-02 0.89289E-03 0.61099E-03 0.40491E-03 0.29288E-03 0.25735E-03 0.26482E-03 0.28549E-03 0.30297E-03 0.31319E-03
 0.31810E-03 0.32030E-03 0.32118E-03 0.32137E-03 0.32135E-03 0.32137E-03 0.32118E-03 0.32030E-03 0.31810E-03 0.31319E-03
 0.30297E-03 0.28549E-03 0.26482E-03 0.25735E-03 0.29288E-03 0.40491E-03 0.61099E-03 0.89289E-03 0.11908E-02 0.14201E-02
 0.42439E-03 0.41749E-03 0.39907E-03 0.37493E-03 0.35174E-03 0.33435E-03 0.32445E-03 0.32083E-03 0.32085E-03 0.32206E-03
 0.32306E-03 0.32357E-03 0.32378E-03 0.32388E-03 0.32389E-03 0.32385E-03 0.32382E-03 0.32385E-03 0.32389E-03 0.32388E-03
 0.32378E-03 0.32357E-03 0.32306E-03 0.32206E-03 0.32085E-03 0.32083E-03 0.32445E-03 0.33435E-03 0.35174E-03 0.37493E-03
 0.39907E-03 0.41749E-03 -.85837E-03 -.77194E-03 -.54241E-03 -.24443E-03 0.37357E-04 0.24321E-03 0.35513E-03 0.39079E-03
 0.38360E-03 0.36313E-03 0.34565E-03 0.33530E-03 0.33026E-03 0.32797E-03 0.32700E-03 0.32671E-03 0.32668E-03 0.32671E-03
 0.32700E-03 0.32797E-03 0.33026E-03 0.33530E-03 0.34565E-03 0.36313E-03 0.38360E-03 0.39079E-03 0.35513E-03 0.24321E-03
 0.37357E-04 -.24443E-03 -.54241E-03 -.77194E-03 0.18754E-03 0.19739E-03 0.22355E-03 0.25760E-03 0.29004E-03 0.31422E-03
 0.32808E-03 0.33339E-03 0.33369E-03 0.33217E-03 0.33067E-03 0.32972E-03 0.32920E-03 0.32892E-03 0.32881E-03 0.32883E-03
 0.32885E-03 0.32883E-03 0.32881E-03 0.32892E-03 0.32920E-03 0.32972E-03 0.33067E-03 0.33217E-03 0.33369E-03 0.33339E-03
 0.32808E-03 0.31422E-03 0.29004E-03 0.25760E-03 0.22355E-03 0.19739E-03 0.15160E-02 0.14297E-02 0.12003E-02 0.90234E-03
 0.62038E-03 0.41436E-03 0.30246E-03 0.26697E-03 0.27433E-03 0.29486E-03 0.31230E-03 0.32254E-03 0.32744E-03 0.32960E-03
 0.33052E-03 0.33084E-03 0.33089E-03 0.33084E-03 0.33052E-03 0.32960E-03 0.32744E-03 0.32254E-03 0.31230E-03 0.29486E-03
 0.27433E-03 0.26697E-03 0.30246E-03 0.41436E-03 0.62038E-03 0.90234E-03 0.12003E-02 0.14297E-02 0.51627E-03 0.50365E-03
 0.46999E-03 0.42597E-03 0.38382E-03 0.35238E-03 0.33450E-03 0.32777E-03 0.32751E-03 0.32951E-03 0.33145E-03 0.33266E-03
 0.33326E-03 0.33352E-03 0.33362E-03 0.33365E-03 0.33366E-03 0.33365E-03 0.33362E-03 0.33352E-03 0.33326E-03 0.33266E-03
 0.33145E-03 0.32951E-03 0.32751E-03 0.32777E-03 0.33450E-03 0.35238E-03 0.38382E-03 0.42597E-03 0.46999E-03 0.50365E-03
 -.84836E-03 -.76198E-03 -.53257E-03 -.23476E-03 0.46881E-04 0.25264E-03 0.36449E-03 0.40004E-03 0.39272E-03 0.37221E-03
 0.35484E-03 0.34467E-03 0.33979E-03 0.33759E-03 0.33667E-03 0.33643E-03 0.33642E-03 0.33643E-03 0.33667E-03 0.33759E-03
 0.33979E-03 0.34467E-03 0.35484E-03 0.37221E-03 0.39272E-03 0.40004E-03 0.36449E-03 0.25264E-03 0.46881E-04 -.23476E-03
 -.53257E-03 -.76198E-03 0.11390E-03 0.12948E-03 0.17089E-03 0.22481E-03 0.27625E-03 0.31461E-03 0.33654E-03 0.34486E-03
 0.34520E-03 0.34273E-03 0.34039E-03 0.33899E-03 0.33830E-03 0.33796E-03 0.33788E-03 0.33795E-03 0.33800E-03 0.33795E-03
 0.33788E-03 0.33796E-03 0.33830E-03 0.33899E-03 0.34039E-03 0.34273E-03 0.34520E-03 0.34486E-03 0.33654E-03 0.31461E-03
 0.27625E-03 0.22481E-03 0.17089E-03 0.12948E-03 0.15231E-02 0.14369E-02 0.12077E-02 0.90990E-03 0.62817E-03 0.42236E-03
 0.31061E-03 0.27513E-03 0.28238E-03 0.30275E-03 0.32007E-03 0.33028E-03 0.33521E-03 0.33742E-03 0.33838E-03 0.33872E-03
 0.33879E-03 0.33872E-03 0.33838E-03 0.33742E-03 0.33521E-03 0.33028E-03 0.32007E-03 0.30275E-03 0.28238E-03 0.27513E-03
 0.31061E-03 0.42236E-03 0.62817E-03 0.90990E-03 0.12077E-02 0.14369E-02 0.60520E-03 0.58684E-03 0.53794E-03 0.47404E-03
 0.41295E-03 0.36741E-03 0.34148E-03 0.33167E-03 0.33115E-03 0.33387E-03 0.33651E-03 0.33819E-03 0.33910E-03 0.33955E-03
 0.33970E-03 0.33967E-03 0.33964E-03 0.33967E-03 0.33970E-03 0.33955E-03 0.33910E-03 0.33819E-03 0.33651E-03 0.33387E-03
 0.33115E-03 0.33167E-03 0.34148E-03 0.36741E-03 0.41295E-03 0.47404E-03 0.53794E-03 0.58684E-03 -.84487E-03 -.75851E-03
 -.52911E-03 -.23123E-03 0.50470E-04 0.25621E-03 0.36797E-03 0.40348E-03 0.39620E-03 0.37569E-03 0.35826E-03 0.34808E-03
 0.34333E-03 0.34129E-03 0.34038E-03 0.33997E-03 0.33986E-03 0.33997E-03 0.34038E-03 0.34129E-03 0.34333E-03 0.34808E-03
 0.35826E-03 0.37569E-03 0.39620E-03 0.40348E-03 0.36797E-03 0.25621E-03 0.50470E-04 -.23123E-03 -.52911E-03 -.75851E-03
 0.29720E-04 0.51081E-04 0.10794E-03 0.18212E-03 0.25288E-03 0.30551E-03 0.33545E-03 0.34685E-03 0.34753E-03 0.34440E-03
 0.34130E-03 0.33947E-03 0.33872E-03 0.33851E-03 0.33841E-03 0.33829E-03 0.33822E-03 0.33829E-03 0.33841E-03 0.33851E-03
 0.33872E-03 0.33947E-03 0.34130E-03 0.34440E-03 0.34753E-03 0.34685E-03 0.33545E-03 0.30551E-03 0.25288E-03 0.18212E-03
 0.10794E-03 0.51081E-04 0.15196E-02 0.14332E-02 0.12038E-02 0.90583E-03 0.62391E-03 0.41784E-03 0.30582E-03 0.27028E-03
 0.27772E-03 0.29836E-03 0.31586E-03 0.32622E-03 0.33137E-03 0.33381E-03 0.33480E-03 0.33499E-03 0.33496E-03 0.33499E-03
 0.33480E-03 0.33381E-03 0.33137E-03 0.32622E-03 0.31586E-03 0.29836E-03 0.27772E-03 0.27028E-03 0.30582E-03 0.41784E-03
 0.62391E-03 0.90583E-03 0.12038E-02 0.14332E-02 0.68288E-03 0.65849E-03 0.59355E-03 0.50879E-03 0.42782E-03 0.36749E-03
 0.33313E-03 0.32014E-03 0.31949E-03 0.32316E-03 0.32676E-03 0.32909E-03 0.33039E-03 0.33103E-03 0.33119E-03 0.33108E-03
 0.33100E-03 0.33108E-03 0.33119E-03 0.33103E-03 0.33039E-03 0.32909E-03 0.32676E-03 0.32316E-03 0.31949E-03 0.32014E-03
 0.33313E-03 0.36749E-03 0.42782E-03 0.50879E-03 0.59355E-03 0.65849E-03 -.85907E-03 -.77271E-03 -.54334E-03 -.24550E-03
 0.36278E-04 0.24229E-03 0.35441E-03 0.39011E-03 0.38275E-03 0.36205E-03 0.34452E-03 0.33432E-03 0.32949E-03 0.32731E-03
 0.32630E-03 0.32591E-03 0.32582E-03 0.32591E-03 0.32630E-03 0.32731E-03 0.32949E-03 0.33432E-03 0.34452E-03 0.36205E-03
 0.38275E-03 0.39011E-03 0.35441E-03 0.24229E-03 0.36278E-04 -.24550E-03 -.54334E-03 -.77271E-03 -.78382E-04 -.50926E-04
 0.22141E-04 0.11748E-03 0.20859E-03 0.27665E-03 0.31563E-03 0.33052E-03 0.33130E-03 0.32701E-03 0.32281E-03 0.32024E-03
 0.31899E-03 0.31843E-03 0.31823E-03 0.31821E-03 0.31822E-03 0.31821E-03 0.31823E-03 0.31843E-03 0.31899E-03 0.32024E-03
 0.32281E-03 0.32701E-03 0.33130E-03 0.33052E-03 0.31563E-03 0.27665E-03 0.20859E-03 0.11748E-03 0.22141E-04 -.50926E-04
 0.14935E-02 0.14071E-02 0.11776E-02 0.87961E-03 0.59781E-03 0.39191E-03 0.27997E-03 0.24442E-03 0.25178E-03 0.27232E-03
 0.28965E-03 0.29978E-03 0.30471E-03 0.30704E-03 0.30808E-03 0.30840E-03 0.30843E-03 0.30840E-03 0.30808E-03 0.30704E-03
 0.30471E-03 0.29978E-03 0.28965E-03 0.27232E-03 0.25178E-03 0.24442E-03 0.27997E-03 0.39191E-03 0.59781E-03 0.87961E-03
 0.11776E-02 0.14071E-02 0.74026E-03 0.70950E-03 0.62776E-03 0.52132E-03 0.41977E-03 0.34394E-03 0.30043E-03 0.28378E-03
 0.28292E-03 0.28767E-03 0.29221E-03 0.29498E-03 0.29650E-03 0.29737E-03 0.29770E-03 0.29763E-03 0.29753E-03 0.29763E-03
 0.29770E-03 0.29737E-03 0.29650E-03 0.29498E-03 0.29221E-03 0.28767E-03 0.28292E-03 0.28378E-03 0.30043E-03 0.34394E-03
 0.41977E-03 0.52132E-03 0.62776E-03 0.70950E-03 -.89958E-03 -.81339E-03 -.58430E-03 -.28654E-03 -.46889E-05 0.20119E-03
 0.31292E-03 0.34836E-03 0.34114E-03 0.32082E-03 0.30352E-03 0.29339E-03 0.28868E-03 0.28670E-03 0.28581E-03 0.28536E-03
 0.28521E-03 0.28536E-03 0.28581E-03 0.28670E-03 0.28868E-03 0.29339E-03 0.30352E-03 0.32082E-03 0.34114E-03 0.34836E-03
 0.31292E-03 0.20119E-03 -.46889E-05 -.28654E-03 -.58430E-03 -.81339E-03 -.21990E-03 -.18612E-03 -.96150E-04 0.21379E-04
 0.13376E-03 0.21761E-03 0.26555E-03 0.28392E-03 0.28516E-03 0.28026E-03 0.27538E-03 0.27238E-03 0.27096E-03 0.27039E-03
 0.27017E-03 0.27008E-03 0.27006E-03 0.27008E-03 0.27017E-03 0.27039E-03 0.27096E-03 0.27238E-03 0.27538E-03 0.28026E-03
 0.28516E-03 0.28392E-03 0.26555E-03 0.21761E-03 0.13376E-03 0.21379E-04 -.96150E-04 -.18612E-03 0.14362E-02 0.13499E-02
 0.11206E-02 0.82284E-03 0.54112E-03 0.33529E-03 0.22351E-03 0.18812E-03 0.19557E-03 0.21611E-03 0.23346E-03 0.24360E-03
 0.24850E-03 0.25075E-03 0.25169E-03 0.25193E-03 0.25194E-03 0.25193E-03 0.25169E-03 0.25075E-03 0.24850E-03 0.24360E-03
 0.23346E-03 0.21611E-03 0.19557E-03 0.18812E-03 0.22351E-03 0.33529E-03 0.54112E-03 0.82284E-03 0.11206E-02 0.13499E-02
 0.77055E-03 0.73336E-03 0.63441E-03 0.50534E-03 0.38204E-03 0.29000E-03 0.23732E-03 0.21717E-03 0.21595E-03 0.22140E-03
 0.22669E-03 0.22995E-03 0.23167E-03 0.23246E-03 0.23259E-03 0.23234E-03 0.23217E-03 0.23234E-03 0.23259E-03 0.23246E-03
 0.23167E-03 0.22995E-03 0.22669E-03 0.22140E-03 0.21595E-03 0.21717E-03 0.23732E-03 0.29000E-03 0.38204E-03 0.50534E-03
 0.63441E-03 0.73336E-03 -.97220E-03 -.88600E-03 -.65691E-03 -.35919E-03 -.77413E-04 0.12842E-03 0.24012E-03 0.27552E-03
 0.26821E-03 0.24776E-03 0.23040E-03 0.22030E-03 0.21559E-03 0.21350E-03 0.21233E-03 0.21158E-03 0.21131E-03 0.21158E-03
 0.21233E-03 0.21350E-03 0.21559E-03 0.22030E-03 0.23040E-03 0.24776E-03 0.26821E-03 0.27552E-03 0.24012E-03 0.12842E-03
 -.77413E-04 -.35919E-03 -.65691E-03 -.88600E-03 -.39879E-03 -.35832E-03 -.25052E-03 -.10970E-03 0.24932E-04 0.12532E-03
 0.18263E-03 0.20457E-03 0.20611E-03 0.20041E-03 0.19481E-03 0.19145E-03 0.18993E-03 0.18933E-03 0.18901E-03 0.18877E-03
 0.18867E-03 0.18877E-03 0.18901E-03 0.18933E-03 0.18993E-03 0.19145E-03 0.19481E-03 0.20041E-03 0.20611E-03 0.20457E-03
 0.18263E-03 0.12532E-03 0.24932E-04 -.10970E-03 -.25052E-03 -.35832E-03 0.13476E-02 0.12613E-02 0.10320E-02 0.73415E-03
 0.45215E-03 0.24591E-03 0.13372E-03 0.98067E-04 0.10549E-03 0.12622E-03 0.14385E-03 0.15431E-03 0.15949E-03 0.16200E-03
 0.16319E-03 0.16365E-03 0.16374E-03 0.16365E-03 0.16319E-03 0.16200E-03 0.15949E-03 0.15431E-03 0.14385E-03 0.12622E-03
 0.10549E-03 0.98067E-04 0.13372E-03 0.24591E-03 0.45215E-03 0.73415E-03 0.10320E-02 0.12613E-02 0.77537E-03 0.73138E-03
 0.61422E-03 0.46108E-03 0.31447E-03 0.20484E-03 0.14198E-03 0.11779E-03 0.11609E-03 0.12244E-03 0.12876E-03 0.13277E-03
 0.13492E-03 0.13605E-03 0.13656E-03 0.13669E-03 0.13670E-03 0.13669E-03 0.13656E-03 0.13605E-03 0.13492E-03 0.13277E-03
 0.12876E-03 0.12244E-03 0.11609E-03 0.11779E-03 0.14198E-03 0.20484E-03 0.31447E-03 0.46108E-03 0.61422E-03 0.73138E-03
 -.10774E-02 -.99096E-03 -.76138E-03 -.46320E-03 -.18107E-03 0.25095E-04 0.13715E-03 0.17274E-03 0.16533E-03 0.14462E-03
 0.12702E-03 0.11672E-03 0.11184E-03 0.10960E-03 0.10846E-03 0.10787E-03 0.10768E-03 0.10787E-03 0.10846E-03 0.10960E-03
 0.11184E-03 0.11672E-03 0.12702E-03 0.14462E-03 0.16533E-03 0.17274E-03 0.13715E-03 0.25095E-04 -.18107E-03 -.46320E-03
 -.76138E-03 -.99096E-03 -.61609E-03 -.56826E-03 -.44086E-03 -.27439E-03 -.11509E-03 0.39877E-05 0.72300E-04 0.98708E-04
 0.10068E-03 0.93788E-04 0.86801E-04 0.82346E-04 0.79984E-04 0.78699E-04 0.77883E-04 0.77369E-04 0.77187E-04 0.77369E-04
 0.77883E-04 0.78699E-04 0.79984E-04 0.82346E-04 0.86801E-04 0.93788E-04 0.10068E-03 0.98708E-04 0.72300E-04 0.39877E-05
 -.11509E-03 -.27439E-03 -.44086E-03 -.56826E-03 0.12327E-02 0.11464E-02 0.91718E-03 0.61944E-03 0.33768E-03 0.13172E-03
 0.19795E-04 -.15601E-04 -.79912E-05 0.12735E-04 0.30102E-04 0.40041E-04 0.44581E-04 0.46412E-04 0.46977E-04 0.46953E-04
 0.46863E-04 0.46953E-04 0.46977E-04 0.46412E-04 0.44581E-04 0.40041E-04 0.30102E-04 0.12735E-04 -.79912E-05 -.15601E-04
 0.19795E-04 0.13172E-03 0.33768E-03 0.61944E-03 0.91718E-03 0.11464E-02 0.76889E-03 0.71725E-03 0.57970E-03 0.39995E-03
 0.22784E-03 0.99059E-04 0.25203E-04 -.31025E-05 -.48110E-05 0.29134E-05 0.10396E-04 0.14911E-04 0.17123E-04 0.18097E-04
 0.18365E-04 0.18257E-04 0.18155E-04 0.18257E-04 0.18365E-04 0.18097E-04 0.17123E-04 0.14911E-04 0.10396E-04 0.29134E-05
 -.48110E-05 -.31025E-05 0.25203E-04 0.99059E-04 0.22784E-03 0.39995E-03 0.57970E-03 0.71725E-03 -.11964E-02 -.11103E-02
 -.88141E-03 -.58411E-03 -.30279E-03 -.97156E-04 0.14795E-04 0.50748E-04 0.44034E-04 0.24085E-04 0.70994E-05 -.27174E-05
 -.71340E-05 -.88522E-05 -.95124E-05 -.97688E-05 -.98362E-05 -.97688E-05 -.95124E-05 -.88522E-05 -.71340E-05 -.27174E-05
 0.70994E-05 0.24085E-04 0.44034E-04 0.50748E-04 0.14795E-04 -.97156E-04 -.30279E-03 -.58411E-03 -.88141E-03 -.11103E-02
 -.85188E-03 -.79656E-03 -.64914E-03 -.45632E-03 -.27153E-03 -.13309E-03 -.53329E-04 -.22104E-04 -.19234E-04 -.26666E-04
 -.34176E-04 -.38586E-04 -.40279E-04 -.40444E-04 -.40006E-04 -.39534E-04 -.39343E-04 -.39534E-04 -.40006E-04 -.40444E-04
 -.40279E-04 -.38586E-04 -.34176E-04 -.26666E-04 -.19234E-04 -.22104E-04 -.53329E-04 -.13309E-03 -.27153E-03 -.45632E-03
 -.64914E-03 -.79656E-03 0.11143E-02 0.10277E-02 0.79785E-03 0.49945E-03 0.21734E-03 0.11317E-04 -.10071E-03 -.13658E-03
 -.12981E-03 -.10995E-03 -.93042E-04 -.82921E-04 -.77546E-04 -.74370E-04 -.72252E-04 -.70997E-04 -.70587E-04 -.70997E-04
 -.72252E-04 -.74370E-04 -.77546E-04 -.82921E-04 -.93042E-04 -.10995E-03 -.12981E-03 -.13658E-03 -.10071E-03 0.11317E-04
 0.21734E-03 0.49945E-03 0.79785E-03 0.10277E-02 0.77657E-03 0.71672E-03 0.55727E-03 0.34890E-03 0.14946E-03 0.22527E-06
 -.85872E-04 -.12022E-03 -.12468E-03 -.11830E-03 -.11142E-03 -.10693E-03 -.10435E-03 -.10273E-03 -.10162E-03 -.10094E-03
 -.10070E-03 -.10094E-03 -.10162E-03 -.10273E-03 -.10435E-03 -.10693E-03 -.11142E-03 -.11830E-03 -.12468E-03 -.12022E-03
 -.85872E-04 0.22527E-06 0.14946E-03 0.34890E-03 0.55727E-03 0.71672E-03 -.13037E-02 -.12172E-02 -.98768E-03 -.68965E-03
 -.40761E-03 -.20130E-03 -.89195E-04 -.54254E-04 -.63182E-04 -.85700E-04 -.10466E-03 -.11568E-03 -.12097E-03 -.12357E-03
 -.12499E-03 -.12568E-03 -.12586E-03 -.12568E-03 -.12499E-03 -.12357E-03 -.12097E-03 -.11568E-03 -.10466E-03 -.85700E-04
 -.63182E-04 -.54254E-04 -.89195E-04 -.20130E-03 -.40761E-03 -.68965E-03 -.98768E-03 -.12172E-02 -.10776E-02 -.10133E-02
 -.84209E-03 -.61822E-03 -.40349E-03 -.24220E-03 -.14892E-03 -.11243E-03 -.10957E-03 -.11903E-03 -.12852E-03 -.13446E-03
 -.13776E-03 -.13999E-03 -.14177E-03 -.14300E-03 -.14343E-03 -.14300E-03 -.14177E-03 -.13999E-03 -.13776E-03 -.13446E-03
 -.12852E-03 -.11903E-03 -.10957E-03 -.11243E-03 -.14892E-03 -.24220E-03 -.40349E-03 -.61822E-03 -.84209E-03 -.10133E-02
 0.10324E-02 0.94583E-03 0.71591E-03 0.41771E-03 0.13614E-03 -.69054E-04 -.18004E-03 -.21470E-03 -.20658E-03 -.18537E-03
 -.16742E-03 -.15696E-03 -.15229E-03 -.15095E-03 -.15133E-03 -.15229E-03 -.15277E-03 -.15229E-03 -.15133E-03 -.15095E-03
 -.15229E-03 -.15696E-03 -.16742E-03 -.18537E-03 -.20658E-03 -.21470E-03 -.18004E-03 -.69054E-04 0.13614E-03 0.41771E-03
 0.71591E-03 0.94583E-03 0.85487E-03 0.78534E-03 0.60028E-03 0.35879E-03 0.12792E-03 -.44676E-04 -.14392E-03 -.18250E-03
 -.18546E-03 -.17529E-03 -.16476E-03 -.15785E-03 -.15431E-03 -.15318E-03 -.15364E-03 -.15472E-03 -.15526E-03 -.15472E-03
 -.15364E-03 -.15318E-03 -.15431E-03 -.15785E-03 -.16476E-03 -.17529E-03 -.18546E-03 -.18250E-03 -.14392E-03 -.44676E-04
 0.12792E-03 0.35879E-03 0.60028E-03 0.78534E-03 -.13249E-02 -.12394E-02 -.10121E-02 -.71682E-03 -.43731E-03 -.23308E-03
 -.12239E-03 -.87839E-04 -.96007E-04 -.11691E-03 -.13390E-03 -.14296E-03 -.14667E-03 -.14848E-03 -.15010E-03 -.15152E-03
 -.15211E-03 -.15152E-03 -.15010E-03 -.14848E-03 -.14667E-03 -.14296E-03 -.13390E-03 -.11691E-03 -.96007E-04 -.87839E-04
 -.12239E-03 -.23308E-03 -.43731E-03 -.71682E-03 -.10121E-02 -.12394E-02 -.11929E-02 -.11198E-02 -.92498E-03 -.67031E-03
 -.42645E-03 -.24425E-03 -.14038E-03 -.10169E-03 -.10125E-03 -.11431E-03 -.12646E-03 -.13330E-03 -.13602E-03 -.13708E-03
 -.13797E-03 -.13886E-03 -.13925E-03 -.13886E-03 -.13797E-03 -.13708E-03 -.13602E-03 -.13330E-03 -.12646E-03 -.11431E-03
 -.10125E-03 -.10169E-03 -.14038E-03 -.24425E-03 -.42645E-03 -.67031E-03 -.92498E-03 -.11198E-02 0.11241E-02 0.10372E-02
 0.80665E-03 0.50721E-03 0.22349E-03 0.14765E-04 -.10142E-03 -.14283E-03 -.14243E-03 -.12892E-03 -.11741E-03 -.11106E-03
 -.10790E-03 -.10609E-03 -.10519E-03 -.10506E-03 -.10513E-03 -.10506E-03 -.10519E-03 -.10609E-03 -.10790E-03 -.11106E-03
 -.11741E-03 -.12892E-03 -.14243E-03 -.14283E-03 -.10142E-03 0.14765E-04 0.22349E-03 0.50721E-03 0.80665E-03 0.10372E-02
 0.11723E-02 0.10930E-02 0.88192E-03 0.60596E-03 0.34109E-03 0.14107E-03 0.22690E-04 -.28683E-04 -.41271E-04 -.39751E-04
 -.37242E-04 -.36806E-04 -.37194E-04 -.37273E-04 -.37091E-04 -.36998E-04 -.36997E-04 -.36998E-04 -.37091E-04 -.37273E-04
 -.37194E-04 -.36806E-04 -.37242E-04 -.39751E-04 -.41271E-04 -.28683E-04 0.22690E-04 0.14107E-03 0.34109E-03 0.60596E-03
 0.88192E-03 0.10930E-02 -.10741E-02 -.98779E-03 -.75848E-03 -.46065E-03 -.17891E-03 0.26656E-04 0.13723E-03 0.16965E-03
 0.15711E-03 0.12988E-03 0.10547E-03 0.89130E-04 0.79566E-04 0.74223E-04 0.71410E-04 0.70175E-04 0.69855E-04 0.70175E-04
 0.71410E-04 0.74223E-04 0.79566E-04 0.89130E-04 0.10547E-03 0.12988E-03 0.15711E-03 0.16965E-03 0.13723E-03 0.26656E-04
 -.17891E-03 -.46065E-03 -.75848E-03 -.98779E-03 -.97852E-03 -.89445E-03 -.67060E-03 -.37816E-03 -.98006E-04 0.11216E-03
 0.23356E-03 0.28071E-03 0.28327E-03 0.26833E-03 0.25163E-03 0.23844E-03 0.22871E-03 0.22149E-03 0.21647E-03 0.21360E-03
 0.21269E-03 0.21360E-03 0.21647E-03 0.22149E-03 0.22871E-03 0.23844E-03 0.25163E-03 0.26833E-03 0.28327E-03 0.28071E-03
 0.23356E-03 0.11216E-03 -.98006E-04 -.37816E-03 -.67060E-03 -.89445E-03 0.17087E-02 0.16200E-02 0.13840E-02 0.10761E-02
 0.78260E-03 0.56522E-03 0.44349E-03 0.40009E-03 0.40060E-03 0.41382E-03 0.42235E-03 0.42216E-03 0.41616E-03 0.40838E-03
 0.40144E-03 0.39673E-03 0.39505E-03 0.39673E-03 0.40144E-03 0.40838E-03 0.41616E-03 0.42216E-03 0.42235E-03 0.41382E-03
 0.40060E-03 0.40009E-03 0.44349E-03 0.56522E-03 0.78260E-03 0.10761E-02 0.13840E-02 0.16200E-02 0.22361E-02 0.21414E-02
 0.18881E-02 0.15537E-02 0.12277E-02 0.97527E-03 0.81951E-03 0.74568E-03 0.72070E-03 0.71348E-03 0.70595E-03 0.69325E-03
 0.67768E-03 0.66295E-03 0.65145E-03 0.64424E-03 0.64179E-03 0.64424E-03 0.65145E-03 0.66295E-03 0.67768E-03 0.69325E-03
 0.70595E-03 0.71348E-03 0.72070E-03 0.74568E-03 0.81951E-03 0.97527E-03 0.12277E-02 0.15537E-02 0.18881E-02 0.21414E-02
 0.20521E-03 0.28791E-03 0.50578E-03 0.78350E-03 0.10371E-02 0.12093E-02 0.12853E-02 0.12851E-02 0.12426E-02 0.11871E-02
 0.11349E-02 0.10912E-02 0.10566E-02 0.10307E-02 0.10134E-02 0.10041E-02 0.10013E-02 0.10041E-02 0.10134E-02 0.10307E-02
 0.10566E-02 0.10912E-02 0.11349E-02 0.11871E-02 0.12426E-02 0.12851E-02 0.12853E-02 0.12093E-02 0.10371E-02 0.78350E-03
 0.50578E-03 0.28791E-03 0.59220E-03 0.68775E-03 0.93999E-03 0.12631E-02 0.15612E-02 0.17679E-02 0.18647E-02 0.18719E-02
 0.18266E-02 0.17617E-02 0.16969E-02 0.16407E-02 0.15960E-02 0.15638E-02 0.15439E-02 0.15341E-02 0.15313E-02 0.15341E-02
 0.15439E-02 0.15638E-02 0.15960E-02 0.16407E-02 0.16969E-02 0.17617E-02 0.18266E-02 0.18719E-02 0.18647E-02 0.17679E-02
 0.15612E-02 0.12631E-02 0.93999E-03 0.68775E-03 0.40892E-02 0.40022E-02 0.37683E-02 0.34558E-02 0.31444E-02 0.28930E-02
 0.27227E-02 0.26208E-02 0.25576E-02 0.25059E-02 0.24526E-02 0.23980E-02 0.23496E-02 0.23137E-02 0.22919E-02 0.22814E-02
 0.22784E-02 0.22814E-02 0.22919E-02 0.23137E-02 0.23496E-02 0.23980E-02 0.24526E-02 0.25059E-02 0.25576E-02 0.26208E-02
 0.27227E-02 0.28930E-02 0.31444E-02 0.34558E-02 0.37683E-02 0.40022E-02 0.56964E-02 0.55889E-02 0.52988E-02 0.49074E-02
 0.45101E-02 0.41786E-02 0.39418E-02 0.37882E-02 0.36856E-02 0.36025E-02 0.35222E-02 0.34440E-02 0.33754E-02 0.33238E-02
 0.32908E-02 0.32738E-02 0.32686E-02 0.32738E-02 0.32908E-02 0.33238E-02 0.33754E-02 0.34440E-02 0.35222E-02 0.36025E-02
 0.36856E-02 0.37882E-02 0.39418E-02 0.41786E-02 0.45101E-02 0.49074E-02 0.52988E-02 0.55889E-02 0.47743E-02 0.48499E-02
 0.50446E-02 0.52791E-02 0.54671E-02 0.55539E-02 0.55318E-02 0.54288E-02 0.52843E-02 0.51291E-02 0.49798E-02 0.48449E-02
 0.47300E-02 0.46403E-02 0.45786E-02 0.45436E-02 0.45324E-02 0.45436E-02 0.45786E-02 0.46403E-02 0.47300E-02 0.48449E-02
 0.49798E-02 0.51291E-02 0.52843E-02 0.54288E-02 0.55318E-02 0.55539E-02 0.54671E-02 0.52791E-02 0.50446E-02 0.48499E-02
 0.69135E-02 0.70013E-02 0.72257E-02 0.74906E-02 0.76928E-02 0.77681E-02 0.77094E-02 0.75517E-02 0.73426E-02 0.71188E-02
 0.68998E-02 0.66951E-02 0.65125E-02 0.63617E-02 0.62509E-02 0.61843E-02 0.61623E-02 0.61843E-02 0.62509E-02 0.63617E-02
 0.65125E-02 0.66951E-02 0.68998E-02 0.71188E-02 0.73426E-02 0.75517E-02 0.77094E-02 0.77681E-02 0.76928E-02 0.74906E-02
 0.72257E-02 0.70013E-02 0.13437E-01 0.13309E-01 0.12954E-01 0.12450E-01 0.11889E-01 0.11353E-01 0.10885E-01 0.10489E-01
 0.10144E-01 0.98230E-02 0.95107E-02 0.92080E-02 0.89289E-02 0.86919E-02 0.85133E-02 0.84032E-02 0.83661E-02 0.84032E-02
 0.85133E-02 0.86919E-02 0.89289E-02 0.92080E-02 0.95107E-02 0.98230E-02 0.10144E-01 0.10489E-01 0.10885E-01 0.11353E-01
 0.11889E-01 0.12450E-01 0.12954E-01 0.13309E-01 0.19002E-01 0.18824E-01 0.18329E-01 0.17623E-01 0.16831E-01 0.16059E-01
 0.15362E-01 0.14749E-01 0.14196E-01 0.13677E-01 0.13180E-01 0.12712E-01 0.12291E-01 0.11940E-01 0.11678E-01 0.11518E-01
 0.11463E-01 0.11518E-01 0.11678E-01 0.11940E-01 0.12291E-01 0.12712E-01 0.13180E-01 0.13677E-01 0.14196E-01 0.14749E-01
 0.15362E-01 0.16059E-01 0.16831E-01 0.17623E-01 0.18329E-01 0.18824E-01 0.22668E-01 0.22683E-01 0.22696E-01 0.22633E-01
 0.22414E-01 0.21999E-01 0.21398E-01 0.20662E-01 0.19858E-01 0.19046E-01 0.18270E-01 0.17563E-01 0.16953E-01 0.16460E-01
 0.16102E-01 0.15886E-01 0.15814E-01 0.15886E-01 0.16102E-01 0.16460E-01 0.16953E-01 0.17563E-01 0.18270E-01 0.19046E-01
 0.19858E-01 0.20662E-01 0.21398E-01 0.21999E-01 0.22414E-01 0.22633E-01 0.22696E-01 0.22683E-01 0.31162E-01 0.31196E-01
 0.31251E-01 0.31218E-01 0.30976E-01 0.30451E-01 0.29642E-01 0.28614E-01 0.27463E-01 0.26286E-01 0.25163E-01 0.24151E-01
 0.23293E-01 0.22614E-01 0.22128E-01 0.21839E-01 0.21743E-01 0.21839E-01 0.22128E-01 0.22614E-01 0.23293E-01 0.24151E-01
 0.25163E-01 0.26286E-01 0.27463E-01 0.28614E-01 0.29642E-01 0.30451E-01 0.30976E-01 0.31218E-01 0.31251E-01 0.31196E-01
 0.47639E-01 0.47397E-01 0.46705E-01 0.45648E-01 0.44329E-01 0.42834E-01 0.41224E-01 0.39537E-01 0.37812E-01 0.36106E-01
 0.34487E-01 0.33028E-01 0.31790E-01 0.30812E-01 0.30111E-01 0.29692E-01 0.29552E-01 0.29692E-01 0.30111E-01 0.30812E-01
 0.31790E-01 0.33028E-01 0.34487E-01 0.36106E-01 0.37812E-01 0.39537E-01 0.41224E-01 0.42834E-01 0.44329E-01 0.45648E-01
 0.46705E-01 0.47397E-01 0.67932E-01 0.67523E-01 0.66358E-01 0.64597E-01 0.62433E-01 0.60029E-01 0.57491E-01 0.54881E-01
 0.52252E-01 0.49676E-01 0.47242E-01 0.45045E-01 0.43167E-01 0.41664E-01 0.40571E-01 0.39908E-01 0.39686E-01 0.39908E-01
 0.40571E-01 0.41664E-01 0.43167E-01 0.45045E-01 0.47242E-01 0.49676E-01 0.52252E-01 0.54881E-01 0.57491E-01 0.60029E-01
 0.62433E-01 0.64597E-01 0.66358E-01 0.67523E-01 0.92319E-01 0.91958E-01 0.90879E-01 0.89101E-01 0.86663E-01 0.83640E-01
 0.80145E-01 0.76333E-01 0.72382E-01 0.68476E-01 0.64777E-01 0.61423E-01 0.58521E-01 0.56159E-01 0.54411E-01 0.53335E-01
 0.52971E-01 0.53335E-01 0.54411E-01 0.56159E-01 0.58521E-01 0.61423E-01 0.64777E-01 0.68476E-01 0.72382E-01 0.76333E-01
 0.80145E-01 0.83640E-01 0.86663E-01 0.89101E-01 0.90879E-01 0.91958E-01 0.13008     0.12954     0.12791     0.12523    
 0.12156     0.11701     0.11177     0.10607     0.10019     0.94387E-01 0.88875E-01 0.83839E-01 0.79435E-01 0.75803E-01
 0.73081E-01 0.71389E-01 0.70815E-01 0.71389E-01 0.73081E-01 0.75803E-01 0.79435E-01 0.83839E-01 0.88875E-01 0.94387E-01
 0.10019     0.10607     0.11177     0.11701     0.12156     0.12523     0.12791     0.12954     0.18772     0.18661    
 0.18339     0.17835     0.17186     0.16431     0.15605     0.14740     0.13864     0.13008     0.12196     0.11453    
 0.10801     0.10263     0.98575E-01 0.96053E-01 0.95196E-01 0.96053E-01 0.98575E-01 0.10263     0.10801     0.11453    
 0.12196     0.13008     0.13864     0.14740     0.15605     0.16431     0.17186     0.17835     0.18339     0.18661    
 0.26492     0.26330     0.25858     0.25115     0.24154     0.23031     0.21798     0.20506     0.19200     0.17927    
 0.16727     0.15636     0.14687     0.13909     0.13327     0.12967     0.12845     0.12967     0.13327     0.13909    
 0.14687     0.15636     0.16727     0.17927     0.19200     0.20506     0.21798     0.23031     0.24154     0.25115    
 0.25858     0.26330     0.36921     0.36720     0.36124     0.35157     0.33854     0.32272     0.30481     0.28563    
 0.26608     0.24701     0.22914     0.21307     0.19925     0.18807     0.17984     0.17478     0.17308     0.17478    
 0.17984     0.18807     0.19925     0.21307     0.22914     0.24701     0.26608     0.28563     0.30481     0.32272    
 0.33854     0.35157     0.36124     0.36720     0.52327     0.52034     0.51161     0.49734     0.47800     0.45434    
 0.42741     0.39853     0.36907     0.34040     0.31366     0.28979     0.26948     0.25323     0.24140     0.23422    
 0.23181     0.23422     0.24140     0.25323     0.26948     0.28979     0.31366     0.34040     0.36907     0.39853    
 0.42741     0.45434     0.47800     0.49734     0.51161     0.52034     0.75194     0.74708     0.73277     0.70971    
 0.67903     0.64218     0.60090     0.55708     0.51271     0.46966     0.42961     0.39395     0.36373     0.33968    
 0.32227     0.31175     0.30824     0.31175     0.32227     0.33968     0.36373     0.39395     0.42961     0.46966    
 0.51271     0.55708     0.60090     0.64218     0.67903     0.70971     0.73277     0.74708      1.0764      1.0688    
  1.0465      1.0108     0.96364     0.90751     0.84513     0.77936     0.71304     0.64885     0.58915     0.53595    
 0.49080     0.45484     0.42879     0.41304     0.40778     0.41304     0.42879     0.45484     0.49080     0.53595    
 0.58915     0.64885     0.71304     0.77936     0.84513     0.90751     0.96364      1.0108      1.0465      1.0688    
  1.5335      1.5221      1.4887      1.4351      1.3645      1.2805      1.1875      1.0897     0.99149     0.89658    
 0.80838     0.72966     0.66267     0.60910     0.57015     0.54653     0.53862     0.54653     0.57015     0.60910    
 0.66267     0.72966     0.80838     0.89658     0.99149      1.0897      1.1875      1.2805      1.3645      1.4351    
  1.4887      1.5221      2.1924      2.1750      2.1238      2.0421      1.9348      1.8080      1.6685      1.5229    
  1.3775      1.2378      1.1084     0.99302     0.89479     0.81606     0.75864     0.72374     0.71203     0.72374    
 0.75864     0.81606     0.89479     0.99302      1.1084      1.2378      1.3775      1.5229      1.6685      1.8080    
  1.9348      2.0421      2.1238      2.1750      3.1515      3.1243      3.0446      2.9181      2.7532      2.5597    
  2.3486      2.1302      1.9138      1.7074      1.5176      1.3494      1.2067      1.0926      1.0095     0.95897    
 0.94202     0.95897      1.0095      1.0926      1.2067      1.3494      1.5176      1.7074      1.9138      2.1302    
  2.3486      2.5597      2.7532      2.9181      3.0446      3.1243      4.5401      4.4984      4.3764      4.1827    
  3.9306      3.6360      3.3156      2.9859      2.6616      2.3548      2.0752      1.8297      1.6232      1.4594    
  1.3406      1.2687      1.2446      1.2687      1.3406      1.4594      1.6232      1.8297      2.0752      2.3548    
  2.6616      2.9859      3.3156      3.6360      3.9306      4.1827      4.3764      4.4984      6.5497      6.4866    
  6.3017      6.0080      5.6253      5.1780      4.6922      4.1940      3.7065      3.2489      2.8354      2.4761    
  2.1771      1.9421      1.7733      1.6716      1.6377      1.6716      1.7733      1.9421      2.1771      2.4761    
  2.8354      3.2489      3.7065      4.1940      4.6922      5.1780      5.6253      6.0080      6.3017      6.4866    
  9.4660      9.3698      9.0881      8.6409      8.0588      7.3797      6.6447      5.8940      5.1633      4.4819    
  3.8711      3.3449      2.9114      2.5739      2.3335      2.1897      2.1419      2.1897      2.3335      2.5739    
  2.9114      3.3449      3.8711      4.4819      5.1633      5.8940      6.6447      7.3797      8.0588      8.6409    
  9.0881      9.3698      13.687      13.538      13.106      12.420      11.532      10.502      9.3929      8.2678    