PROCAR lm decomposed
# of k-points:   16         # of bands:   28         # of ions:    8

 k-point     1 :    0.00000000 0.00000000 0.00000000     weight = 0.02777778

band     1 # energy  -15.93634276 # occ.  2.00000000
 
ion      s     py     pz     px    dxy    dyz    dz2    dxz  x2-y2    tot
    1  0.053  0.002  0.001  0.000  0.000  0.000  0.000  0.000  0.000  0.056
    2  0.053  0.002  0.001  0.000  0.000  0.000  0.000  0.000  0.000  0.056
    3  0.069  0.001  0.001  0.000  0.000  0.000  0.000  0.000  0.000  0.072
    4  0.069  0.001  0.001  0.000  0.000  0.000  0.000  0.000  0.000  0.072
    5  0.069  0.001  0.001  0.000  0.000  0.000  0.000  0.000  0.000  0.072
    6  0.069  0.001  0.001  0.000  0.000  0.000  0.000  0.000  0.000  0.072
    7  0.053  0.002  0.001  0.000  0.000  0.000  0.000  0.000  0.000  0.056
    8  0.053  0.002  0.001  0.000  0.000  0.000  0.000  0.000  0.000  0.056
tot    0.489  0.014  0.008  0.000  0.000  0.000  0.000  0.000  0.000  0.511
 
band     2 # energy  -15.79351019 # occ.  2.00000000
 
ion      s     py     pz     px    dxy    dyz    dz2    dxz  x2-y2    tot
    1  0.062  0.002  0.001  0.000  0.000  0.000  0.000  0.000  0.000  0.066
    2  0.062  0.002  0.001  0.000  0.000  0.000  0.000  0.000  0.000  0.066
    3  0.060  0.003  0.001  0.000  0.000  0.000  0.000  0.000  0.000  0.064
    4  0.060  0.003  0.001  0.000  0.000  0.000  0.000  0.000  0.000  0.064
    5  0.060  0.003  0.001  0.000  0.000  0.000  0.000  0.000  0.000  0.064
    6  0.060  0.003  0.001  0.000  0.000  0.000  0.000  0.000  0.000  0.064
    7  0.062  0.002  0.001  0.000  0.000  0.000  0.000  0.000  0.000  0.066
    8  0.062  0.002  0.001  0.000  0.000  0.000  0.000  0.000  0.000  0.066
tot    0.491  0.019  0.008  0.000  0.000  0.000  0.000  0.000  0.000  0.518
 
band     3 # energy  -13.42238625 # occ.  2.00000000
 
ion      s     py     pz     px    dxy    dyz    dz2    dxz  x2-y2    tot
    1  0.070  0.000  0.006  0.000  0.000  0.000  0.000  0.000  0.000  0.076
    2  0.070  0.000  0.006  0.000  0.000  0.000  0.000  0.000  0.000  0.076
    3  0.054  0.002  0.005  0.000  0.000  0.000  0.000  0.000  0.000  0.060
    4  0.054  0.002  0.005  0.000  0.000  0.000  0.000  0.000  0.000  0.060
    5  0.054  0.002  0.005  0.000  0.000  0.000  0.000  0.000  0.000  0.060
    6  0.054  0.002  0.005  0.000  0.000  0.000  0.000  0.000  0.000  0.060
    7  0.070  0.000  0.006  0.000  0.000  0.000  0.000  0.000  0.000  0.076
    8  0.070  0.000  0.006  0.000  0.000  0.000  0.000  0.000  0.000  0.076
tot    0.496  0.008  0.042  0.000  0.000  0.000  0.000  0.000  0.000  0.547
 
band     4 # energy  -13.11081745 # occ.  2.00000000
 
ion      s     py     pz     px    dxy    dyz    dz2    dxz  x2-y2    tot
    1  0.062  0.001  0.006  0.000  0.000  0.000  0.000  0.000  0.000  0.069
    2  0.062  0.001  0.006  0.000  0.000  0.000  0.000  0.000  0.000  0.069
    3  0.066  0.000  0.007  0.000  0.000  0.000  0.000  0.000  0.000  0.073
    4  0.066  0.000  0.007  0.000  0.000  0.000  0.000  0.000  0.000  0.073
    5  0.066  0.000  0.007  0.000  0.000  0.000  0.000  0.000  0.000  0.073
    6  0.066  0.000  0.007  0.000  0.000  0.000  0.000  0.000  0.000  0.073
    7  0.062  0.001  0.006  0.000  0.000  0.000  0.000  0.000  0.000  0.069
    8  0.062  0.001  0.006  0.000  0.000  0.000  0.000  0.000  0.000  0.069
tot    0.512  0.004  0.051  0.000  0.000  0.000  0.000  0.000  0.000  0.567
 
band     5 # energy   -9.71147362 # occ.  2.00000000
 
ion      s     py     pz     px    dxy    dyz    dz2    dxz  x2-y2    tot
    1  0.058  0.006  0.005  0.000  0.000  0.000  0.000  0.000  0.000  0.070
    2  0.058  0.006  0.005  0.000  0.000  0.000  0.000  0.000  0.000  0.070
    3  0.068  0.005  0.006  0.000  0.000  0.000  0.000  0.000  0.000  0.080
    4  0.068  0.005  0.006  0.000  0.000  0.000  0.000  0.000  0.000  0.080
    5  0.068  0.005  0.006  0.000  0.000  0.000  0.000  0.000  0.000  0.080
    6  0.068  0.005  0.006  0.000  0.000  0.000  0.000  0.000  0.000  0.080
    7  0.058  0.006  0.005  0.000  0.000  0.000  0.000  0.000  0.000  0.070
    8  0.058  0.006  0.005  0.000  0.000  0.000  0.000  0.000  0.000  0.070
tot    0.505  0.046  0.046  0.000  0.000  0.000  0.000  0.000  0.000  0.597
 
band     6 # energy   -9.59308983 # occ.  2.00000000
 
ion      s     py     pz     px    dxy    dyz    dz2    dxz  x2-y2    tot
    1  0.064  0.007  0.006  0.000  0.000  0.000  0.000  0.000  0.000  0.076
    2  0.064  0.007  0.006  0.000  0.000  0.000  0.000  0.000  0.000  0.076
    3  0.061  0.007  0.006  0.000  0.000  0.000  0.000  0.000  0.000  0.074
    4  0.061  0.007  0.006  0.000  0.000  0.000  0.000  0.000  0.000  0.074
    5  0.061  0.007  0.006  0.000  0.000  0.000  0.000  0.000  0.000  0.074
    6  0.061  0.007  0.006  0.000  0.000  0.000  0.000  0.000  0.000  0.074
    7  0.064  0.007  0.006  0.000  0.000  0.000  0.000  0.000  0.000  0.076
    8  0.064  0.007  0.006  0.000  0.000  0.000  0.000  0.000  0.000  0.076
tot    0.500  0.056  0.046  0.000  0.000  0.000  0.000  0.000  0.000  0.602
 
band     7 # energy   -6.95113570 # occ.  2.00000000
 
ion      s     py     pz     px    dxy    dyz    dz2    dxz  x2-y2    tot
    1  0.002  0.027  0.015  0.000  0.000  0.000  0.000  0.000  0.000  0.044
    2  0.002  0.027  0.015  0.000  0.000  0.000  0.000  0.000  0.000  0.044
    3  0.000  0.052  0.001  0.000  0.000  0.000  0.000  0.000  0.000  0.053
    4  0.000  0.052  0.001  0.000  0.000  0.000  0.000  0.000  0.000  0.053
    5  0.000  0.052  0.001  0.000  0.000  0.000  0.000  0.000  0.000  0.053
    6  0.000  0.052  0.001  0.000  0.000  0.000  0.000  0.000  0.000  0.053
    7  0.002  0.027  0.015  0.000  0.000  0.000  0.000  0.000  0.000  0.044
    8  0.002  0.027  0.015  0.000  0.000  0.000  0.000  0.000  0.000  0.044
tot    0.010  0.315  0.064  0.000  0.000  0.000  0.000  0.000  0.000  0.388
 
band     8 # energy   -6.32137117 # occ.  2.00000000
 
ion      s     py     pz     px    dxy    dyz    dz2    dxz  x2-y2    tot
    1  0.002  0.044  0.005  0.000  0.000  0.000  0.000  0.000  0.000  0.051
    2  0.002  0.044  0.005  0.000  0.000  0.000  0.000  0.000  0.000  0.051
    3  0.002  0.026  0.027  0.000  0.000  0.000  0.000  0.000  0.000  0.055
    4  0.002  0.026  0.027  0.000  0.000  0.000  0.000  0.000  0.000  0.055
    5  0.002  0.026  0.027  0.000  0.000  0.000  0.000  0.000  0.000  0.055
    6  0.002  0.026  0.027  0.000  0.000  0.000  0.000  0.000  0.000  0.055
    7  0.002  0.044  0.005  0.000  0.000  0.000  0.000  0.000  0.000  0.051
    8  0.002  0.044  0.005  0.000  0.000  0.000  0.000  0.000  0.000  0.051
tot    0.015  0.280  0.129  0.000  0.000  0.000  0.000  0.000  0.000  0.424
 
band     9 # energy   -5.67088487 # occ.  2.00000000
 
ion      s     py     pz     px    dxy    dyz    dz2    dxz  x2-y2    tot
    1  0.068  0.001  0.007  0.000  0.000  0.000  0.000  0.000  0.000  0.077
    2  0.068  0.001  0.007  0.000  0.000  0.000  0.000  0.000  0.000  0.077
    3  0.062  0.009  0.006  0.000  0.000  0.000  0.000  0.000  0.000  0.077
    4  0.062  0.009  0.006  0.000  0.000  0.000  0.000  0.000  0.000  0.077
    5  0.062  0.009  0.006  0.000  0.000  0.000  0.000  0.000  0.000  0.077
    6  0.062  0.009  0.006  0.000  0.000  0.000  0.000  0.000  0.000  0.077
    7  0.068  0.001  0.007  0.000  0.000  0.000  0.000  0.000  0.000  0.077
    8  0.068  0.001  0.007  0.000  0.000  0.000  0.000  0.000  0.000  0.077
tot    0.520  0.041  0.053  0.000  0.000  0.000  0.000  0.000  0.000  0.614
 
band    10 # energy   -5.55006951 # occ.  2.00000000
 
ion      s     py     pz     px    dxy    dyz    dz2    dxz  x2-y2    tot
    1  0.001  0.022  0.016  0.000  0.000  0.000  0.000  0.000  0.000  0.039
    2  0.001  0.022  0.016  0.000  0.000  0.000  0.000  0.000  0.000  0.039
    3  0.000  0.002  0.048  0.000  0.000  0.000  0.000  0.000  0.000  0.049
    4  0.000  0.002  0.048  0.000  0.000  0.000  0.000  0.000  0.000  0.049
    5  0.000  0.002  0.048  0.000  0.000  0.000  0.000  0.000  0.000  0.049
    6  0.000  0.002  0.048  0.000  0.000  0.000  0.000  0.000  0.000  0.049
    7  0.001  0.022  0.016  0.000  0.000  0.000  0.000  0.000  0.000  0.039
    8  0.001  0.022  0.016  0.000  0.000  0.000  0.000  0.000  0.000  0.039
tot    0.004  0.094  0.252  0.000  0.000  0.000  0.000  0.000  0.000  0.351
 
band    11 # energy   -5.13338424 # occ.  2.00000000
 
ion      s     py     pz     px    dxy    dyz    dz2    dxz  x2-y2    tot
    1  0.001  0.001  0.051  0.000  0.000  0.000  0.000  0.000  0.000  0.053
    2  0.001  0.001  0.051  0.000  0.000  0.000  0.000  0.000  0.000  0.053
    3  0.003  0.016  0.017  0.000  0.000  0.000  0.000  0.000  0.000  0.036
    4  0.003  0.016  0.017  0.000  0.000  0.000  0.000  0.000  0.000  0.036
    5  0.003  0.016  0.017  0.000  0.000  0.000  0.000  0.000  0.000  0.036
    6  0.003  0.016  0.017  0.000  0.000  0.000  0.000  0.000  0.000  0.036
    7  0.001  0.001  0.051  0.000  0.000  0.000  0.000  0.000  0.000  0.053
    8  0.001  0.001  0.051  0.000  0.000  0.000  0.000  0.000  0.000  0.053
tot    0.017  0.067  0.270  0.000  0.000  0.000  0.000  0.000  0.000  0.354
 
band    12 # energy   -5.00530372 # occ.  2.00000000
 
ion      s     py     pz     px    dxy    dyz    dz2    dxz  x2-y2    tot
    1  0.071  0.005  0.008  0.000  0.000  0.000  0.000  0.000  0.000  0.084
    2  0.071  0.005  0.008  0.000  0.000  0.000  0.000  0.000  0.000  0.084
    3  0.071  0.001  0.008  0.000  0.000  0.000  0.000  0.000  0.000  0.081
    4  0.071  0.001  0.008  0.000  0.000  0.000  0.000  0.000  0.000  0.081
    5  0.071  0.001  0.008  0.000  0.000  0.000  0.000  0.000  0.000  0.081
    6  0.071  0.001  0.008  0.000  0.000  0.000  0.000  0.000  0.000  0.081
    7  0.071  0.005  0.008  0.000  0.000  0.000  0.000  0.000  0.000  0.084
    8  0.071  0.005  0.008  0.000  0.000  0.000  0.000  0.000  0.000  0.084
tot    0.570  0.026  0.062  0.000  0.000  0.000  0.000  0.000  0.000  0.658
 
band    13 # energy   -4.47838079 # occ.  2.00000000
 
ion      s     py     pz     px    dxy    dyz    dz2    dxz  x2-y2    tot
    1  0.000  0.000  0.000  0.053  0.000  0.000  0.000  0.000  0.000  0.053
    2  0.000  0.000  0.000  0.053  0.000  0.000  0.000  0.000  0.000  0.053
    3  0.000  0.000  0.000  0.072  0.000  0.000  0.000  0.000  0.000  0.072
    4  0.000  0.000  0.000  0.072  0.000  0.000  0.000  0.000  0.000  0.072
    5  0.000  0.000  0.000  0.072  0.000  0.000  0.000  0.000  0.000  0.072
    6  0.000  0.000  0.000  0.072  0.000  0.000  0.000  0.000  0.000  0.072
    7  0.000  0.000  0.000  0.053  0.000  0.000  0.000  0.000  0.000  0.053
    8  0.000  0.000  0.000  0.053  0.000  0.000  0.000  0.000  0.000  0.053
tot    0.000  0.000  0.000  0.497  0.000  0.000  0.000  0.000  0.000  0.497
 
band    14 # energy   -4.37071537 # occ.  2.00000000
 
ion      s     py     pz     px    dxy    dyz    dz2    dxz  x2-y2    tot
    1  0.000  0.000  0.000  0.062  0.000  0.000  0.000  0.000  0.000  0.062
    2  0.000  0.000  0.000  0.062  0.000  0.000  0.000  0.000  0.000  0.062
    3  0.000  0.000  0.000  0.063  0.000  0.000  0.000  0.000  0.000  0.063
    4  0.000  0.000  0.000  0.063  0.000  0.000  0.000  0.000  0.000  0.063
    5  0.000  0.000  0.000  0.063  0.000  0.000  0.000  0.000  0.000  0.063
    6  0.000  0.000  0.000  0.063  0.000  0.000  0.000  0.000  0.000  0.063
    7  0.000  0.000  0.000  0.062  0.000  0.000  0.000  0.000  0.000  0.062
    8  0.000  0.000  0.000  0.062  0.000  0.000  0.000  0.000  0.000  0.062
tot    0.000  0.000  0.000  0.501  0.000  0.000  0.000  0.000  0.000  0.501
 
band    15 # energy   -2.94587608 # occ.  2.00000000
 
ion      s     py     pz     px    dxy    dyz    dz2    dxz  x2-y2    tot
    1  0.001  0.002  0.060  0.000  0.000  0.000  0.000  0.000  0.000  0.062
    2  0.001  0.002  0.060  0.000  0.000  0.000  0.000  0.000  0.000  0.062
    3  0.000  0.004  0.034  0.000  0.000  0.000  0.000  0.000  0.000  0.038
    4  0.000  0.004  0.034  0.000  0.000  0.000  0.000  0.000  0.000  0.038
    5  0.000  0.004  0.034  0.000  0.000  0.000  0.000  0.000  0.000  0.038
    6  0.000  0.004  0.034  0.000  0.000  0.000  0.000  0.000  0.000  0.038
    7  0.001  0.002  0.060  0.000  0.000  0.000  0.000  0.000  0.000  0.062
    8  0.001  0.002  0.060  0.000  0.000  0.000  0.000  0.000  0.000  0.062
tot    0.004  0.023  0.376  0.000  0.000  0.000  0.000  0.000  0.000  0.403
 
band    16 # energy   -2.80150864 # occ.  2.00000000
 
ion      s     py     pz     px    dxy    dyz    dz2    dxz  x2-y2    tot
    1  0.000  0.000  0.000  0.076  0.000  0.000  0.000  0.000  0.000  0.076
    2  0.000  0.000  0.000  0.076  0.000  0.000  0.000  0.000  0.000  0.076
    3  0.000  0.000  0.000  0.056  0.000  0.000  0.000  0.000  0.000  0.056
    4  0.000  0.000  0.000  0.056  0.000  0.000  0.000  0.000  0.000  0.056
    5  0.000  0.000  0.000  0.056  0.000  0.000  0.000  0.000  0.000  0.056
    6  0.000  0.000  0.000  0.056  0.000  0.000  0.000  0.000  0.000  0.056
    7  0.000  0.000  0.000  0.076  0.000  0.000  0.000  0.000  0.000  0.076
    8  0.000  0.000  0.000  0.076  0.000  0.000  0.000  0.000  0.000  0.076
tot    0.000  0.000  0.000  0.529  0.000  0.000  0.000  0.000  0.000  0.529
 
band    17 # energy   -2.64692061 # occ.  2.00000000
 
ion      s     py     pz     px    dxy    dyz    dz2    dxz  x2-y2    tot
    1  0.000  0.000  0.000  0.067  0.000  0.000  0.000  0.000  0.000  0.067
    2  0.000  0.000  0.000  0.067  0.000  0.000  0.000  0.000  0.000  0.067
    3  0.000  0.000  0.000  0.067  0.000  0.000  0.000  0.000  0.000  0.067
    4  0.000  0.000  0.000  0.067  0.000  0.000  0.000  0.000  0.000  0.067
    5  0.000  0.000  0.000  0.067  0.000  0.000  0.000  0.000  0.000  0.067
    6  0.000  0.000  0.000  0.067  0.000  0.000  0.000  0.000  0.000  0.067
    7  0.000  0.000  0.000  0.067  0.000  0.000  0.000  0.000  0.000  0.067
    8  0.000  0.000  0.000  0.067  0.000  0.000  0.000  0.000  0.000  0.067
tot    0.000  0.000  0.000  0.538  0.000  0.000  0.000  0.000  0.000  0.538
 
band    18 # energy   -2.38259238 # occ.  2.00000000
 
ion      s     py     pz     px    dxy    dyz    dz2    dxz  x2-y2    tot
    1  0.000  0.019  0.025  0.000  0.000  0.000  0.000  0.000  0.000  0.044
    2  0.000  0.019  0.025  0.000  0.000  0.000  0.000  0.000  0.000  0.044
    3  0.003  0.005  0.045  0.000  0.000  0.000  0.000  0.000  0.000  0.054
    4  0.003  0.005  0.045  0.000  0.000  0.000  0.000  0.000  0.000  0.054
    5  0.003  0.005  0.045  0.000  0.000  0.000  0.000  0.000  0.000  0.054
    6  0.003  0.005  0.045  0.000  0.000  0.000  0.000  0.000  0.000  0.054
    7  0.000  0.019  0.025  0.000  0.000  0.000  0.000  0.000  0.000  0.044
    8  0.000  0.019  0.025  0.000  0.000  0.000  0.000  0.000  0.000  0.044
tot    0.013  0.095  0.283  0.000  0.000  0.000  0.000  0.000  0.000  0.392
 
band    19 # energy   -1.34624097 # occ.  2.00000000
 
ion      s     py     pz     px    dxy    dyz    dz2    dxz  x2-y2    tot
    1  0.010  0.050  0.003  0.000  0.000  0.000  0.000  0.000  0.000  0.063
    2  0.010  0.050  0.003  0.000  0.000  0.000  0.000  0.000  0.000  0.063
    3  0.000  0.057  0.000  0.000  0.000  0.000  0.000  0.000  0.000  0.057
    4  0.000  0.057  0.000  0.000  0.000  0.000  0.000  0.000  0.000  0.057
    5  0.000  0.057  0.000  0.000  0.000  0.000  0.000  0.000  0.000  0.057
    6  0.000  0.057  0.000  0.000  0.000  0.000  0.000  0.000  0.000  0.057
    7  0.010  0.050  0.003  0.000  0.000  0.000  0.000  0.000  0.000  0.063
    8  0.010  0.050  0.003  0.000  0.000  0.000  0.000  0.000  0.000  0.063
tot    0.043  0.427  0.011  0.000  0.000  0.000  0.000  0.000  0.000  0.481
 
band    20 # energy   -0.21299823 # occ.  2.00000000
 
ion      s     py     pz     px    dxy    dyz    dz2    dxz  x2-y2    tot
    1  0.000  0.052  0.003  0.000  0.000  0.000  0.000  0.000  0.000  0.056
    2  0.000  0.052  0.003  0.000  0.000  0.000  0.000  0.000  0.000  0.056
    3  0.005  0.044  0.008  0.000  0.000  0.000  0.000  0.000  0.000  0.057
    4  0.005  0.044  0.008  0.000  0.000  0.000  0.000  0.000  0.000  0.057
    5  0.005  0.044  0.008  0.000  0.000  0.000  0.000  0.000  0.000  0.057
    6  0.005  0.044  0.008  0.000  0.000  0.000  0.000  0.000  0.000  0.057
    7  0.000  0.052  0.003  0.000  0.000  0.000  0.000  0.000  0.000  0.056
    8  0.000  0.052  0.003  0.000  0.000  0.000  0.000  0.000  0.000  0.056
tot    0.021  0.384  0.046  0.000  0.000  0.000  0.000  0.000  0.000  0.451
 
band    21 # energy   -0.10244389 # occ.  0.00000000
 
ion      s     py     pz     px    dxy    dyz    dz2    dxz  x2-y2    tot
    1  0.005  0.032  0.003  0.000  0.000  0.000  0.000  0.000  0.000  0.040
    2  0.005  0.032  0.003  0.000  0.000  0.000  0.000  0.000  0.000  0.040
    3  0.008  0.020  0.015  0.000  0.000  0.000  0.000  0.000  0.000  0.043
    4  0.008  0.020  0.015  0.000  0.000  0.000  0.000  0.000  0.000  0.043
    5  0.008  0.020  0.015  0.000  0.000  0.000  0.000  0.000  0.000  0.043
    6  0.008  0.020  0.015  0.000  0.000  0.000  0.000  0.000  0.000  0.043
    7  0.005  0.032  0.003  0.000  0.000  0.000  0.000  0.000  0.000  0.040
    8  0.005  0.032  0.003  0.000  0.000  0.000  0.000  0.000  0.000  0.040
tot    0.053  0.208  0.073  0.000  0.000  0.000  0.000  0.000  0.000  0.334
 
band    22 # energy    0.45290227 # occ.  0.00000000
 
ion      s     py     pz     px    dxy    dyz    dz2    dxz  x2-y2    tot
    1  0.010  0.001  0.010  0.000  0.000  0.000  0.000  0.000  0.000  0.021
    2  0.010  0.001  0.010  0.000  0.000  0.000  0.000  0.000  0.000  0.021
    3  0.013  0.002  0.022  0.000  0.000  0.000  0.000  0.000  0.000  0.037
    4  0.013  0.002  0.022  0.000  0.000  0.000  0.000  0.000  0.000  0.037
    5  0.013  0.002  0.022  0.000  0.000  0.000  0.000  0.000  0.000  0.037
    6  0.013  0.002  0.022  0.000  0.000  0.000  0.000  0.000  0.000  0.037
    7  0.010  0.001  0.010  0.000  0.000  0.000  0.000  0.000  0.000  0.021
    8  0.010  0.001  0.010  0.000  0.000  0.000  0.000  0.000  0.000  0.021
tot    0.094  0.009  0.126  0.000  0.000  0.000  0.000  0.000  0.000  0.230
 
band    23 # energy    0.51102896 # occ.  0.00000000
 
ion      s     py     pz     px    dxy    dyz    dz2    dxz  x2-y2    tot
    1  0.006  0.018  0.015  0.000  0.000  0.000  0.000  0.000  0.000  0.039
    2  0.006  0.018  0.015  0.000  0.000  0.000  0.000  0.000  0.000  0.039
    3  0.001  0.053  0.000  0.000  0.000  0.000  0.000  0.000  0.000  0.053
    4  0.001  0.053  0.000  0.000  0.000  0.000  0.000  0.000  0.000  0.053
    5  0.001  0.053  0.000  0.000  0.000  0.000  0.000  0.000  0.000  0.053
    6  0.001  0.053  0.000  0.000  0.000  0.000  0.000  0.000  0.000  0.053
    7  0.006  0.018  0.015  0.000  0.000  0.000  0.000  0.000  0.000  0.039
    8  0.006  0.018  0.015  0.000  0.000  0.000  0.000  0.000  0.000  0.039
tot    0.026  0.283  0.062  0.000  0.000  0.000  0.000  0.000  0.000  0.371
 
band    24 # energy    0.77669900 # occ.  0.00000000
 
ion      s     py     pz     px    dxy    dyz    dz2    dxz  x2-y2    tot
    1  0.015  0.013  0.015  0.000  0.000  0.000  0.000  0.000  0.000  0.043
    2  0.015  0.013  0.015  0.000  0.000  0.000  0.000  0.000  0.000  0.043
    3  0.022  0.009  0.010  0.000  0.000  0.000  0.000  0.000  0.000  0.041
    4  0.022  0.009  0.010  0.000  0.000  0.000  0.000  0.000  0.000  0.041
    5  0.022  0.009  0.010  0.000  0.000  0.000  0.000  0.000  0.000  0.041
    6  0.022  0.009  0.010  0.000  0.000  0.000  0.000  0.000  0.000  0.041
    7  0.015  0.013  0.015  0.000  0.000  0.000  0.000  0.000  0.000  0.043
    8  0.015  0.013  0.015  0.000  0.000  0.000  0.000  0.000  0.000  0.043
tot    0.148  0.088  0.099  0.000  0.000  0.000  0.000  0.000  0.000  0.335
 
band    25 # energy    1.67368841 # occ.  0.00000000
 
ion      s     py     pz     px    dxy    dyz    dz2    dxz  x2-y2    tot
    1  0.019  0.001  0.041  0.000  0.000  0.000  0.000  0.000  0.000  0.061
    2  0.019  0.001  0.041  0.000  0.000  0.000  0.000  0.000  0.000  0.061
    3  0.010  0.000  0.027  0.000  0.000  0.000  0.000  0.000  0.000  0.037
    4  0.010  0.000  0.027  0.000  0.000  0.000  0.000  0.000  0.000  0.037
    5  0.010  0.000  0.027  0.000  0.000  0.000  0.000  0.000  0.000  0.037
    6  0.010  0.000  0.027  0.000  0.000  0.000  0.000  0.000  0.000  0.037
    7  0.019  0.001  0.041  0.000  0.000  0.000  0.000  0.000  0.000  0.061
    8  0.019  0.001  0.041  0.000  0.000  0.000  0.000  0.000  0.000  0.061
tot    0.116  0.005  0.271  0.000  0.000  0.000  0.000  0.000  0.000  0.391
 
band    26 # energy    1.82107056 # occ.  0.00000000
 
ion      s     py     pz     px    dxy    dyz    dz2    dxz  x2-y2    tot
    1  0.015  0.000  0.034  0.000  0.000  0.000  0.000  0.000  0.000  0.049
    2  0.015  0.000  0.034  0.000  0.000  0.000  0.000  0.000  0.000  0.049
    3  0.020  0.001  0.038  0.000  0.000  0.000  0.000  0.000  0.000  0.059
    4  0.020  0.001  0.038  0.000  0.000  0.000  0.000  0.000  0.000  0.059
    5  0.020  0.001  0.038  0.000  0.000  0.000  0.000  0.000  0.000  0.059
    6  0.020  0.001  0.038  0.000  0.000  0.000  0.000  0.000  0.000  0.059
    7  0.015  0.000  0.034  0.000  0.000  0.000  0.000  0.000  0.000  0.049
    8  0.015  0.000  0.034  0.000  0.000  0.000  0.000  0.000  0.000  0.049
tot    0.140  0.003  0.289  0.000  0.000  0.000  0.000  0.000  0.000  0.431
 
band    27 # energy    2.59842502 # occ.  0.00000000
 
ion      s     py     pz     px    dxy    dyz    dz2    dxz  x2-y2    tot
    1  0.000  0.000  0.000  0.056  0.000  0.000  0.000  0.000  0.000  0.056
    2  0.000  0.000  0.000  0.056  0.000  0.000  0.000  0.000  0.000  0.056
    3  0.000  0.000  0.000  0.069  0.000  0.000  0.000  0.000  0.000  0.069
    4  0.000  0.000  0.000  0.069  0.000  0.000  0.000  0.000  0.000  0.069
    5  0.000  0.000  0.000  0.069  0.000  0.000  0.000  0.000  0.000  0.069
    6  0.000  0.000  0.000  0.069  0.000  0.000  0.000  0.000  0.000  0.069
    7  0.000  0.000  0.000  0.056  0.000  0.000  0.000  0.000  0.000  0.056
    8  0.000  0.000  0.000  0.056  0.000  0.000  0.000  0.000  0.000  0.056
tot    0.000  0.000  0.000  0.500  0.000  0.000  0.000  0.000  0.000  0.500
 
band    28 # energy    2.71356469 # occ.  0.00000000
 
ion      s     py     pz     px    dxy    dyz    dz2    dxz  x2-y2    tot
    1  0.000  0.000  0.000  0.064  0.000  0.000  0.000  0.000  0.000  0.064
    2  0.000  0.000  0.000  0.064  0.000  0.000  0.000  0.000  0.000  0.064
    3  0.000  0.000  0.000  0.062  0.000  0.000  0.000  0.000  0.000  0.062
    4  0.000  0.000  0.000  0.062  0.000  0.000  0.000  0.000  0.000  0.062
    5  0.000  0.000  0.000  0.062  0.000  0.000  0.000  0.000  0.000  0.062
    6  0.000  0.000  0.000  0.062  0.000  0.000  0.000  0.000  0.000  0.062
    7  0.000  0.000  0.000  0.064  0.000  0.000  0.000  0.000  0.000  0.064
    8  0.000  0.000  0.000  0.064  0.000  0.000  0.000  0.000  0.000  0.064
tot    0.000  0.000  0.000  0.503  0.000  0.000  0.000  0.000  0.000  0.503
 

 k-point     2 :    0.16666667 0.00000000 0.00000000     weight = 0.05555556

band     1 # energy  -15.61373223 # occ.  2.00000000
 
ion      s     py     pz     px    dxy    dyz    dz2    dxz  x2-y2    tot
    1  0.053  0.002  0.001  0.001  0.000  0.000  0.000  0.000  0.000  0.057
    2  0.053  0.002  0.001  0.001  0.000  0.000  0.000  0.000  0.000  0.057
    3  0.068  0.002  0.001  0.001  0.000  0.000  0.000  0.000  0.000  0.072
    4  0.068  0.002  0.001  0.001  0.000  0.000  0.000  0.000  0.000  0.072
    5  0.068  0.002  0.001  0.001  0.000  0.000  0.000  0.000  0.000  0.072
    6  0.068  0.002  0.001  0.001  0.000  0.000  0.000  0.000  0.000  0.072
    7  0.053  0.002  0.001  0.001  0.000  0.000  0.000  0.000  0.000  0.057
    8  0.053  0.002  0.001  0.001  0.000  0.000  0.000  0.000  0.000  0.057
tot    0.485  0.015  0.007  0.007  0.000  0.000  0.000  0.000  0.000  0.514
 
band     2 # energy  -15.47172331 # occ.  2.00000000
 
ion      s     py     pz     px    dxy    dyz    dz2    dxz  x2-y2    tot
    1  0.062  0.002  0.001  0.001  0.000  0.000  0.000  0.000  0.000  0.066
    2  0.062  0.002  0.001  0.001  0.000  0.000  0.000  0.000  0.000  0.066
    3  0.060  0.003  0.001  0.001  0.000  0.000  0.000  0.000  0.000  0.064
    4  0.060  0.003  0.001  0.001  0.000  0.000  0.000  0.000  0.000  0.064
    5  0.060  0.003  0.001  0.001  0.000  0.000  0.000  0.000  0.000  0.064
    6  0.060  0.003  0.001  0.001  0.000  0.000  0.000  0.000  0.000  0.064
    7  0.062  0.002  0.001  0.001  0.000  0.000  0.000  0.000  0.000  0.066
    8  0.062  0.002  0.001  0.001  0.000  0.000  0.000  0.000  0.000  0.066
tot    0.487  0.019  0.007  0.007  0.000  0.000  0.000  0.000  0.000  0.521
 
band     3 # energy  -13.08752919 # occ.  2.00000000
 
ion      s     py     pz     px    dxy    dyz    dz2    dxz  x2-y2    tot
    1  0.069  0.000  0.005  0.001  0.000  0.000  0.000  0.000  0.000  0.077
    2  0.069  0.000  0.005  0.001  0.000  0.000  0.000  0.000  0.000  0.077
    3  0.053  0.002  0.005  0.001  0.000  0.000  0.000  0.000  0.000  0.061
    4  0.053  0.002  0.005  0.001  0.000  0.000  0.000  0.000  0.000  0.061
    5  0.053  0.002  0.005  0.001  0.000  0.000  0.000  0.000  0.000  0.061
    6  0.053  0.002  0.005  0.001  0.000  0.000  0.000  0.000  0.000  0.061
    7  0.069  0.000  0.005  0.001  0.000  0.000  0.000  0.000  0.000  0.077
    8  0.069  0.000  0.005  0.001  0.000  0.000  0.000  0.000  0.000  0.077
tot    0.489  0.008  0.040  0.010  0.000  0.000  0.000  0.000  0.000  0.548
 
band     4 # energy  -12.77543548 # occ.  2.00000000
 
ion      s     py     pz     px    dxy    dyz    dz2    dxz  x2-y2    tot
    1  0.062  0.001  0.006  0.001  0.000  0.000  0.000  0.000  0.000  0.070
    2  0.062  0.001  0.006  0.001  0.000  0.000  0.000  0.000  0.000  0.070
    3  0.065  0.000  0.006  0.001  0.000  0.000  0.000  0.000  0.000  0.073
    4  0.065  0.000  0.006  0.001  0.000  0.000  0.000  0.000  0.000  0.073
    5  0.065  0.000  0.006  0.001  0.000  0.000  0.000  0.000  0.000  0.073
    6  0.065  0.000  0.006  0.001  0.000  0.000  0.000  0.000  0.000  0.073
    7  0.062  0.001  0.006  0.001  0.000  0.000  0.000  0.000  0.000  0.070
    8  0.062  0.001  0.006  0.001  0.000  0.000  0.000  0.000  0.000  0.070
tot    0.504  0.004  0.049  0.011  0.000  0.000  0.000  0.000  0.000  0.569
 
band     5 # energy  -10.02925093 # occ.  2.00000000
 
ion      s     py     pz     px    dxy    dyz    dz2    dxz  x2-y2    tot
    1  0.059  0.006  0.003  0.002  0.000  0.000  0.000  0.000  0.000  0.070
    2  0.059  0.006  0.003  0.002  0.000  0.000  0.000  0.000  0.000  0.070
    3  0.071  0.005  0.004  0.002  0.000  0.000  0.000  0.000  0.000  0.081
    4  0.071  0.005  0.004  0.002  0.000  0.000  0.000  0.000  0.000  0.081
    5  0.071  0.005  0.004  0.002  0.000  0.000  0.000  0.000  0.000  0.081
    6  0.071  0.005  0.004  0.002  0.000  0.000  0.000  0.000  0.000  0.081
    7  0.059  0.006  0.003  0.002  0.000  0.000  0.000  0.000  0.000  0.070
    8  0.059  0.006  0.003  0.002  0.000  0.000  0.000  0.000  0.000  0.070
tot    0.519  0.043  0.027  0.017  0.000  0.000  0.000  0.000  0.000  0.605
 
band     6 # energy   -9.91101042 # occ.  2.00000000
 
ion      s     py     pz     px    dxy    dyz    dz2    dxz  x2-y2    tot
    1  0.066  0.006  0.003  0.002  0.000  0.000  0.000  0.000  0.000  0.077
    2  0.066  0.006  0.003  0.002  0.000  0.000  0.000  0.000  0.000  0.077
    3  0.063  0.007  0.003  0.002  0.000  0.000  0.000  0.000  0.000  0.075
    4  0.063  0.007  0.003  0.002  0.000  0.000  0.000  0.000  0.000  0.075
    5  0.063  0.007  0.003  0.002  0.000  0.000  0.000  0.000  0.000  0.075
    6  0.063  0.007  0.003  0.002  0.000  0.000  0.000  0.000  0.000  0.075
    7  0.066  0.006  0.003  0.002  0.000  0.000  0.000  0.000  0.000  0.077
    8  0.066  0.006  0.003  0.002  0.000  0.000  0.000  0.000  0.000  0.077
tot    0.515  0.053  0.026  0.017  0.000  0.000  0.000  0.000  0.000  0.610
 
band     7 # energy   -6.68180027 # occ.  2.00000000
 
ion      s     py     pz     px    dxy    dyz    dz2    dxz  x2-y2    tot
    1  0.002  0.027  0.016  0.001  0.000  0.000  0.000  0.000  0.000  0.046
    2  0.002  0.027  0.016  0.001  0.000  0.000  0.000  0.000  0.000  0.046
    3  0.000  0.052  0.001  0.000  0.000  0.000  0.000  0.000  0.000  0.053
    4  0.000  0.052  0.001  0.000  0.000  0.000  0.000  0.000  0.000  0.053
    5  0.000  0.052  0.001  0.000  0.000  0.000  0.000  0.000  0.000  0.053
    6  0.000  0.052  0.001  0.000  0.000  0.000  0.000  0.000  0.000  0.053
    7  0.002  0.027  0.016  0.001  0.000  0.000  0.000  0.000  0.000  0.046
    8  0.002  0.027  0.016  0.001  0.000  0.000  0.000  0.000  0.000  0.046
tot    0.008  0.316  0.066  0.003  0.000  0.000  0.000  0.000  0.000  0.394
 
band     8 # energy   -6.26858281 # occ.  2.00000000
 
ion      s     py     pz     px    dxy    dyz    dz2    dxz  x2-y2    tot
    1  0.069  0.001  0.001  0.008  0.000  0.000  0.000  0.000  0.000  0.079
    2  0.069  0.001  0.001  0.008  0.000  0.000  0.000  0.000  0.000  0.079
    3  0.060  0.007  0.001  0.011  0.000  0.000  0.000  0.000  0.000  0.078
    4  0.060  0.007  0.001  0.011  0.000  0.000  0.000  0.000  0.000  0.078
    5  0.060  0.007  0.001  0.011  0.000  0.000  0.000  0.000  0.000  0.078
    6  0.060  0.007  0.001  0.011  0.000  0.000  0.000  0.000  0.000  0.078
    7  0.069  0.001  0.001  0.008  0.000  0.000  0.000  0.000  0.000  0.079
    8  0.069  0.001  0.001  0.008  0.000  0.000  0.000  0.000  0.000  0.079
tot    0.515  0.031  0.008  0.074  0.000  0.000  0.000  0.000  0.000  0.628
 
band     9 # energy   -6.07654933 # occ.  2.00000000
 
ion      s     py     pz     px    dxy    dyz    dz2    dxz  x2-y2    tot
    1  0.002  0.043  0.006  0.001  0.000  0.000  0.000  0.000  0.000  0.051
    2  0.002  0.043  0.006  0.001  0.000  0.000  0.000  0.000  0.000  0.051
    3  0.001  0.026  0.028  0.001  0.000  0.000  0.000  0.000  0.000  0.056