<?xml version="1.0" encoding="ISO-8859-1"?>
<modeling>
 <generator>
  <i name="program" type="string">vasp </i>
  <i name="version" type="string">5.4.4.18Apr17-6-g9f103f2a35  </i>
  <i name="subversion" type="string">(build Jun 20 2017 18:00:50) complex            parallel </i>
  <i name="platform" type="string">LinuxIFC </i>
  <i name="date" type="string">2018 06 06 </i>
  <i name="time" type="string">15:21:33 </i>
 </generator>
 <incar>
  <i type="string" name="SYSTEM"> Generic Input</i>
  <i type="int" name="ISTART">     1</i>
  <i type="string" name="PREC">normal    ! precision level</i>
  <i type="int" name="IALGO">    53</i>
  <i type="string" name="ALGO"> Normal    ! SCF minimisation algorithm</i>
  <i type="int" name="INIWAV">     1</i>
  <i type="int" name="NELM">   200</i>
  <i type="int" name="NELMIN">     2</i>
  <i type="int" name="IBRION">     2</i>
  <i name="EDIFF">      0.00001000</i>
  <i name="EDIFFG">     -0.02000000</i>
  <i type="int" name="NSW">     0</i>
  <i type="int" name="ISIF">     3</i>
  <i type="int" name="IWAVPR">    11</i>
  <i type="int" name="NBLOCK">     1</i>
  <i type="int" name="KBLOCK">    40</i>
  <i name="ENCUT">    350.00000000</i>
  <i type="int" name="NEDOS">  2000</i>
  <i type="int" name="ISMEAR">     0</i>
  <i name="SIGMA">      0.01000000</i>
  <i type="int" name="NWRITE">     2</i>
  <i type="logical" name="LWAVE"> F  </i>
  <i type="logical" name="LVHAR"> T  </i>
  <i type="int" name="LORBIT">    11</i>
  <i type="logical" name="LASPH"> T  </i>
  <i type="int" name="ICORELEVEL">     1</i>
  <v type="int" name="KPOINT_BSE">    -1     0     0     0</v>
  <i type="int" name="NELM">   200</i>
  <i type="string" name="GGA"> PE        ! PBEsol exchange-correlation</i>
  <i type="logical" name="LASPH"> T  </i>
 </incar>
 <structure name="primitive_cell" >
  <crystal>
   <varray name="basis" >
    <v>       3.34288600       0.00000000       0.00000000 </v>
    <v>       0.00000000      27.37286400       0.00000000 </v>
    <v>       0.00000000       0.00000000       4.37483100 </v>
   </varray>
   <i name="volume">    400.31612759 </i>
   <varray name="rec_basis" >
    <v>       0.29914272       0.00000000       0.00000000 </v>
    <v>       0.00000000       0.03653253       0.00000000 </v>
    <v>       0.00000000       0.00000000       0.22858026 </v>
   </varray>
  </crystal>
  <varray name="positions" >
   <v>       0.00000000       0.36532500      -0.08107600 </v>
   <v>      -0.50000000       0.36532500      -0.41892400 </v>
   <v>       0.00000000       0.44362600       0.08107600 </v>
   <v>      -0.50000000       0.44362600       0.41892400 </v>
   <v>       0.00000000      -0.44362600      -0.08107600 </v>
   <v>      -0.50000000      -0.44362600      -0.41892400 </v>
   <v>       0.00000000      -0.36532500       0.08107600 </v>
   <v>      -0.50000000      -0.36532500       0.41892400 </v>
  </varray>
 </structure>
 <varray name="primitive_index" >
  <v type="int" >        1 </v>
  <v type="int" >        2 </v>
  <v type="int" >        3 </v>
  <v type="int" >        4 </v>
  <v type="int" >        5 </v>
  <v type="int" >        6 </v>
  <v type="int" >        7 </v>
  <v type="int" >        8 </v>
 </varray>
 <kpoints>
  <generation param="Gamma">
   <v type="int" name="divisions">       6        1        6 </v>
   <v name="usershift">      0.00000000       0.00000000       0.00000000 </v>
   <v name="genvec1">      0.16666667       0.00000000       0.00000000 </v>
   <v name="genvec2">      0.00000000       1.00000000       0.00000000 </v>
   <v name="genvec3">      0.00000000       0.00000000       0.16666667 </v>
   <v name="shift">      0.00000000       0.00000000       0.00000000 </v>
  </generation>
  <varray name="kpointlist" >
   <v>       0.00000000       0.00000000       0.00000000 </v>
   <v>       0.16666667       0.00000000       0.00000000 </v>
   <v>       0.33333333       0.00000000       0.00000000 </v>
   <v>       0.50000000       0.00000000       0.00000000 </v>
   <v>       0.00000000       0.00000000       0.16666667 </v>
   <v>       0.16666667       0.00000000       0.16666667 </v>
   <v>       0.33333333       0.00000000       0.16666667 </v>
   <v>       0.50000000       0.00000000       0.16666667 </v>
   <v>       0.00000000       0.00000000       0.33333333 </v>
   <v>       0.16666667       0.00000000       0.33333333 </v>
   <v>       0.33333333       0.00000000       0.33333333 </v>
   <v>       0.50000000       0.00000000       0.33333333 </v>
   <v>       0.00000000       0.00000000       0.50000000 </v>
   <v>       0.16666667       0.00000000       0.50000000 </v>
   <v>       0.33333333       0.00000000       0.50000000 </v>
   <v>       0.50000000       0.00000000       0.50000000 </v>
  </varray>
  <varray name="weights" >
   <v>       0.02777778 </v>
   <v>       0.05555556 </v>
   <v>       0.05555556 </v>
   <v>       0.02777778 </v>
   <v>       0.05555556 </v>
   <v>       0.11111111 </v>
   <v>       0.11111111 </v>
   <v>       0.05555556 </v>
   <v>       0.05555556 </v>
   <v>       0.11111111 </v>
   <v>       0.11111111 </v>
   <v>       0.05555556 </v>
   <v>       0.02777778 </v>
   <v>       0.05555556 </v>
   <v>       0.05555556 </v>
   <v>       0.02777778 </v>
  </varray>
 </kpoints>
 <parameters>
  <separator name="general" >
   <i type="string" name="SYSTEM">Generic Input</i>
   <i type="logical" name="LCOMPAT"> F  </i>
  </separator>
  <separator name="electronic" >
   <i type="string" name="PREC">normal</i>
   <i name="ENMAX">    350.00000000</i>
   <i name="ENAUG">    342.92400000</i>
   <i name="EDIFF">      0.00001000</i>
   <i type="int" name="IALGO">    38</i>
   <i type="int" name="IWAVPR">    11</i>
   <i type="int" name="NBANDS">    28</i>
   <i name="NELECT">     40.00000000</i>
   <i type="int" name="TURBO">     0</i>
   <i type="int" name="IRESTART">     0</i>
   <i type="int" name="NREBOOT">     0</i>
   <i type="int" name="NMIN">     0</i>
   <i name="EREF">      0.00000000</i>
   <separator name="electronic smearing" >
    <i type="int" name="ISMEAR">     0</i>
    <i name="SIGMA">      0.01000000</i>
    <i name="KSPACING">      0.50000000</i>
    <i type="logical" name="KGAMMA"> T  </i>
   </separator>
   <separator name="electronic projectors" >
    <i type="logical" name="LREAL"> F  </i>
    <v name="ROPT">      0.00000000</v>
    <i type="int" name="LMAXPAW">  -100</i>
    <i type="int" name="LMAXMIX">     2</i>
    <i type="logical" name="NLSPLINE"> F  </i>
   </separator>
   <separator name="electronic startup" >
    <i type="int" name="ISTART">     0</i>
    <i type="int" name="ICHARG">     2</i>
    <i type="int" name="INIWAV">     1</i>
   </separator>
   <separator name="electronic spin" >
    <i type="int" name="ISPIN">     1</i>
    <i type="logical" name="LNONCOLLINEAR"> F  </i>
    <v name="MAGMOM">      1.00000000      1.00000000      1.00000000      1.00000000      1.00000000      1.00000000      1.00000000      1.00000000</v>
    <i name="NUPDOWN">     -1.00000000</i>
    <i type="logical" name="LSORBIT"> F  </i>
    <v name="SAXIS">      0.00000000      0.00000000      1.00000000</v>
    <i type="logical" name="LSPIRAL"> F  </i>
    <v name="QSPIRAL">      0.00000000      0.00000000      0.00000000</v>
    <i type="logical" name="LZEROZ"> F  </i>
   </separator>
   <separator name="electronic exchange-correlation" >
    <i type="logical" name="LASPH"> T  </i>
    <i type="logical" name="LMETAGGA"> F  </i>
   </separator>
   <separator name="electronic convergence" >
    <i type="int" name="NELM">   200</i>
    <i type="int" name="NELMDL">     0</i>
    <i type="int" name="NELMIN">     2</i>
    <i name="ENINI">    350.00000000</i>
    <separator name="electronic convergence detail" >
     <i type="logical" name="LDIAG"> T  </i>
     <i type="logical" name="LSUBROT"> F  </i>
     <i name="WEIMIN">      0.00000000</i>
     <i name="EBREAK">      0.00000009</i>
     <i name="DEPER">      0.30000000</i>
     <i type="int" name="NRMM">     4</i>
     <i name="TIME">      0.40000000</i>
    </separator>
   </separator>
   <separator name="electronic mixer" >
    <i name="AMIX">      0.40000000</i>
    <i name="BMIX">      1.00000000</i>
    <i name="AMIN">      0.10000000</i>
    <i name="AMIX_MAG">      1.60000000</i>
    <i name="BMIX_MAG">      1.00000000</i>
    <separator name="electronic mixer details" >
     <i type="int" name="IMIX">     4</i>
     <i type="logical" name="MIXFIRST"> F  </i>
     <i type="int" name="MAXMIX">   -45</i>
     <i name="WC">    100.00000000</i>
     <i type="int" name="INIMIX">     1</i>
     <i type="int" name="MIXPRE">     1</i>
     <i type="int" name="MREMOVE">     5</i>
    </separator>
   </separator>
   <separator name="electronic dipolcorrection" >
    <i type="logical" name="LDIPOL"> F  </i>
    <i type="logical" name="LMONO"> F  </i>
    <i type="int" name="IDIPOL">     0</i>
    <i name="EPSILON">      1.00000000</i>
    <v name="DIPOL">   -100.00000000   -100.00000000   -100.00000000</v>
    <i name="EFIELD">      0.00000000</i>
   </separator>
  </separator>
  <separator name="grids" >
   <i type="int" name="NGX">    16</i>
   <i type="int" name="NGY">   126</i>
   <i type="int" name="NGZ">    20</i>
   <i type="int" name="NGXF">    32</i>
   <i type="int" name="NGYF">   252</i>
   <i type="int" name="NGZF">    40</i>
   <i type="logical" name="ADDGRID"> F  </i>
  </separator>
  <separator name="ionic" >
   <i type="int" name="NSW">     0</i>
   <i type="int" name="IBRION">    -1</i>
   <i type="int" name="MDALGO">     0</i>
   <i type="int" name="ISIF">     3</i>
   <i name="PSTRESS">      0.00000000</i>
   <i name="EDIFFG">     -0.02000000</i>
   <i type="int" name="NFREE">     1</i>
   <i name="POTIM">      0.50000000</i>
   <i name="SMASS">     -3.00000000</i>
   <i name="SCALEE">      1.00000000</i>
  </separator>
  <separator name="ionic md" >
   <i name="TEBEG">      0.00010000</i>
   <i name="TEEND">      0.00010000</i>
   <i type="int" name="NBLOCK">     1</i>
   <i type="int" name="KBLOCK">     1</i>
   <i type="int" name="NPACO">   256</i>
   <i name="APACO">     16.00000000</i>
  </separator>
  <separator name="symmetry" >
   <i type="int" name="ISYM">     2</i>
   <i name="SYMPREC">      0.00001000</i>
  </separator>
  <separator name="dos" >
   <i type="int" name="LORBIT">    11</i>
   <v name="RWIGS">     -1.00000000</v>
   <i type="int" name="NEDOS">  2000</i>
   <i name="EMIN">     10.00000000</i>
   <i name="EMAX">    -10.00000000</i>
   <i name="EFERMI">      0.00000000</i>
  </separator>
  <separator name="writing" >
   <i type="int" name="NWRITE">     2</i>
   <i type="logical" name="LWAVE"> F  </i>
   <i type="logical" name="LDOWNSAMPLE"> F  </i>
   <i type="logical" name="LCHARG"> T  </i>
   <i type="logical" name="LPARD"> F  </i>
   <i type="logical" name="LVTOT"> F  </i>
   <i type="logical" name="LVHAR"> T  </i>
   <i type="logical" name="LELF"> F  </i>
   <i type="logical" name="LOPTICS"> F  </i>
   <v name="STM">      0.00000000      0.00000000      0.00000000      0.00000000      0.00000000      0.00000000      0.00000000</v>
  </separator>
  <separator name="performance" >
   <i type="int" name="NPAR">     4</i>
   <i type="int" name="NSIM">     4</i>
   <i type="int" name="NBLK">    -1</i>
   <i type="logical" name="LPLANE"> T  </i>
   <i type="logical" name="LSCALAPACK"> T  </i>
   <i type="logical" name="LSCAAWARE"> F  </i>
   <i type="logical" name="LSCALU"> F  </i>
   <i type="logical" name="LASYNC"> F  </i>
   <i type="logical" name="LORBITALREAL"> F  </i>
  </separator>
  <separator name="miscellaneous" >
   <i type="int" name="IDIOT">     3</i>
   <i type="int" name="ISPECIAL">     0</i>
   <i type="logical" name="LMUSIC"> F  </i>
   <v name="POMASS">     30.97400000</v>
   <v name="DARWINR">      0.00000000</v>
   <v name="DARWINV">      1.00000000</v>
   <i type="logical" name="LCORR"> T  </i>
  </separator>
  <i type="logical" name="GGA_COMPAT"> T  </i>
  <i type="logical" name="LBERRY"> F  </i>
  <i type="int" name="ICORELEVEL">     1</i>
  <i type="int" name="CLNT">     1</i>
  <i type="int" name="CLN">     1</i>
  <i type="int" name="CLL">     0</i>
  <i name="CLZ">      0.00000000</i>
  <i type="logical" name="LDAU"> F  </i>
  <i type="int" name="I_CONSTRAINED_M">     0</i>
  <separator name="electronic exchange-correlation" >
   <i type="string" name="GGA">PE</i>
   <i type="int" name="VOSKOWN">     0</i>
   <i type="logical" name="LHFCALC"> F  </i>
   <i type="string" name="PRECFOCK"></i>
   <i type="logical" name="LSYMGRAD"> F  </i>
   <i type="logical" name="LHFONE"> F  </i>
   <i type="logical" name="LRHFCALC"> F  </i>
   <i type="logical" name="LTHOMAS"> F  </i>
   <i type="logical" name="LMODELHF"> F  </i>
   <i name="ENCUT4O">     -1.00000000</i>
   <i type="int" name="EXXOEP">     0</i>
   <i type="int" name="FOURORBIT">     0</i>
   <i name="AEXX">      0.00000000</i>
   <i name="HFALPHA">      0.00000000</i>
   <i name="MCALPHA">      0.00000000</i>
   <i name="ALDAX">      1.00000000</i>
   <i name="AGGAX">      1.00000000</i>
   <i name="ALDAC">      1.00000000</i>
   <i name="AGGAC">      1.00000000</i>
   <i type="int" name="NKREDX">     1</i>
   <i type="int" name="NKREDY">     1</i>
   <i type="int" name="NKREDZ">     1</i>
   <i type="logical" name="SHIFTRED"> F  </i>
   <i type="logical" name="ODDONLY"> F  </i>
   <i type="logical" name="EVENONLY"> F  </i>
   <i type="int" name="LMAXFOCK">     0</i>
   <i type="int" name="NMAXFOCKAE">     0</i>
   <i type="logical" name="LFOCKAEDFT"> F  </i>
   <i name="HFSCREEN">      0.00000000</i>
   <i name="HFSCREENC">      0.00000000</i>
   <i type="int" name="NBANDSGWLOW">     0</i>
  </separator>
  <separator name="vdW DFT" >
   <i type="logical" name="LUSE_VDW"> F  </i>
   <i name="Zab_VDW">     -0.84910000</i>
   <i name="PARAM1">      0.12340000</i>
   <i name="PARAM2">      1.00000000</i>
   <i name="PARAM3">      0.00000000</i>
  </separator>
  <separator name="model GW" >
   <i type="int" name="MODEL_GW">     0</i>
   <i name="MODEL_EPS0">     30.02370957</i>
   <i name="MODEL_ALPHA">      1.00000000</i>
  </separator>
  <separator name="linear response parameters" >
   <i type="logical" name="LEPSILON"> F  </i>
   <i type="logical" name="LRPA"> F  </i>
   <i type="logical" name="LNABLA"> F  </i>
   <i type="logical" name="LVEL"> F  </i>
   <i type="int" name="KINTER">     0</i>
   <i name="CSHIFT">      0.10000000</i>
   <i name="OMEGAMAX">     -1.00000000</i>
   <i name="DEG_THRESHOLD">      0.00200000</i>
   <i name="RTIME">     -0.10000000</i>
   <i name="WPLASMAI">      0.00000000</i>
   <v name="DFIELD">      0.00000000      0.00000000      0.00000000</v>
   <v name="WPLASMA">      0.00000000      0.00000000      0.00000000      0.00000000      0.00000000      0.00000000      0.00000000      0.00000000      0.00000000</v>
  </separator>
  <separator name="orbital magnetization" >
   <i type="logical" name="NUCIND"> F  </i>
   <v name="MAGPOS">      0.00000000      0.00000000      0.00000000</v>
   <i type="logical" name="LNICSALL"> T  </i>
   <i type="logical" name="ORBITALMAG"> F  </i>
   <i type="logical" name="LMAGBLOCH"> F  </i>
   <i type="logical" name="LCHIMAG"> F  </i>
   <i type="logical" name="LGAUGE"> T  </i>
   <i type="int" name="MAGATOM">     0</i>
   <v name="MAGDIPOL">      0.00000000      0.00000000      0.00000000</v>
   <v name="AVECCONST">      0.00000000      0.00000000      0.00000000</v>
  </separator>
  <separator name="response functions" >
   <i type="logical" name="LADDER"> F  </i>
   <i type="logical" name="LRPAFORCE"> F  </i>
   <i type="logical" name="LFXC"> F  </i>
   <i type="logical" name="LHARTREE"> T  </i>
   <i type="int" name="IBSE">     0</i>
   <v type="int" name="KPOINT">    -1     0     0     0</v>
   <i type="logical" name="LTCTE"> F  </i>
   <i type="logical" name="LTETE"> F  </i>
   <i type="logical" name="LTRIPLET"> F  </i>
   <i type="logical" name="LFXCEPS"> F  </i>
   <i type="logical" name="LFXHEG"> F  </i>
   <i type="int" name="NATURALO">     2</i>
   <i type="logical" name="L2ORDER"> F  </i>
   <i type="logical" name="LMP2LT"> F  </i>
   <i type="logical" name="LUSEW"> F  </i>
   <i name="ENCUTGW">     -2.00000000</i>
   <i name="ENCUTGWSOFT">     -2.00000000</i>
   <i name="ENCUTLF">     -1.00000000</i>
   <i type="int" name="LMAXMP2">    -1</i>
   <i name="SCISSOR">      0.00000000</i>
   <i type="int" name="NOMEGA">     0</i>
   <i type="int" name="NOMEGAR">     0</i>
   <i type="int" name="NBANDSGW">    -1</i>
   <i type="int" name="NBANDSO">    -1</i>
   <i type="int" name="NBANDSV">    -1</i>
   <i type="int" name="NELM">   200</i>
   <i type="int" name="NELMHF">     1</i>
   <i type="int" name="DIM">     3</i>
   <i type="int" name="ANTIRES">     0</i>
   <i name="OMEGAMAX">    -30.00000000</i>
   <i name="OMEGAMIN">    -30.00000000</i>
   <i name="OMEGATL">   -200.00000000</i>
   <i type="int" name="OMEGAGRID">   140</i>
   <i name="CSHIFT">     -0.10000000</i>
   <i type="logical" name="SELFENERGY"> F  </i>
   <i type="logical" name="LSPECTRAL"> F  </i>
   <i type="logical" name="LSPECTRALGW"> F  </i>
   <i type="logical" name="LSINGLES"> F  </i>
   <i type="logical" name="LFERMIGW"> F  </i>
   <i type="logical" name="ODDONLYGW"> F  </i>
   <i type="logical" name="EVENONLYGW"> F  </i>
   <i type="int" name="NKREDLFX">     1</i>
   <i type="int" name="NKREDLFY">     1</i>
   <i type="int" name="NKREDLFZ">     1</i>
   <i type="int" name="MAXMEM">  2800</i>
   <i type="int" name="TELESCOPE">     0</i>
   <i type="int" name="TAUPAR">     1</i>
   <i type="int" name="OMEGAPAR">    -1</i>
   <i name="LAMBDA">      1.00000000</i>
  </separator>
  <separator name="External order field" >
   <i name="OFIELD_KAPPA">      0.00000000</i>
   <v name="OFIELD_K">      0.00000000      0.00000000      0.00000000</v>
   <i name="OFIELD_Q6_NEAR">      0.00000000</i>
   <i name="OFIELD_Q6_FAR">      0.00000000</i>
   <i name="OFIELD_A">      0.00000000</i>
  </separator>
 </parameters>
 <atominfo>
  <atoms>       8 </atoms>
  <types>       1 </types>
  <array name="atoms" >
   <dimension dim="1">ion</dimension>
   <field type="string">element</field>
   <field type="int">atomtype</field>
   <set>
    <rc><c>P </c><c>   1</c></rc>
    <rc><c>P </c><c>   1</c></rc>
    <rc><c>P </c><c>   1</c></rc>
    <rc><c>P </c><c>   1</c></rc>
    <rc><c>P </c><c>   1</c></rc>
    <rc><c>P </c><c>   1</c></rc>
    <rc><c>P </c><c>   1</c></rc>
    <rc><c>P </c><c>   1</c></rc>
   </set>
  </array>
  <array name="atomtypes" >
   <dimension dim="1">type</dimension>
   <field type="int">atomspertype</field>
   <field type="string">element</field>
   <field>mass</field>
   <field>valence</field>
   <field type="string">pseudopotential</field>
   <set>
    <rc><c>   8</c><c>P </c><c>     30.97400000</c><c>      5.00000000</c><c>  PAW_PBE P 06Sep2000                   </c></rc>
   </set>
  </array>
 </atominfo>
 <structure name="initialpos" >
  <crystal>
   <varray name="basis" >
    <v>       3.34288600       0.00000000       0.00000000 </v>
    <v>       0.00000000      27.37286400       0.00000000 </v>
    <v>       0.00000000       0.00000000       4.37483100 </v>
   </varray>
   <i name="volume">    400.31612759 </i>
   <varray name="rec_basis" >
    <v>       0.29914272       0.00000000       0.00000000 </v>
    <v>       0.00000000       0.03653253       0.00000000 </v>
    <v>       0.00000000       0.00000000       0.22858026 </v>
   </varray>
  </crystal>
  <varray name="positions" >
   <v>       0.00000000       0.36532500       0.91892400 </v>
   <v>       0.50000000       0.36532500       0.58107600 </v>
   <v>       0.00000000       0.44362600       0.08107600 </v>
   <v>       0.50000000       0.44362600       0.41892400 </v>
   <v>       0.00000000       0.55637400       0.91892400 </v>
   <v>       0.50000000       0.55637400       0.58107600 </v>
   <v>       0.00000000       0.63467500       0.08107600 </v>
   <v>       0.50000000       0.63467500       0.41892400 </v>
  </varray>
 </structure>
 <calculation>
  <scstep>
   <time name="dav">    0.41    0.46</time>
   <time name="total">    0.59    0.66</time>
   <energy>
    <i name="alphaZ">     16.02894242 </i>
    <i name="ewald">   7853.93710242 </i>
    <i name="hartreedc">  -9107.29099652 </i>
    <i name="XCdc">     26.77489437 </i>
    <i name="pawpsdc">   1118.08023920 </i>
    <i name="pawaedc">  -1052.78864088 </i>
    <i name="eentropy">     -0.00023980 </i>
    <i name="bandstr">    -34.04571128 </i>
    <i name="atom">   1408.32458022 </i>
    <i name="e_fr_energy">    229.02017017 </i>
    <i name="e_wo_entrp">    229.02040997 </i>
    <i name="e_0_energy">    229.02029007 </i>
   </energy>
  </scstep>
  <scstep>
   <time name="dav">    0.50    0.51</time>
   <time name="total">    0.50    0.51</time>
   <energy>
    <i name="e_fr_energy">    -16.87901369 </i>
    <i name="e_wo_entrp">    -16.87900765 </i>
    <i name="e_0_energy">    -16.87901067 </i>
   </energy>
  </scstep>
  <scstep>
   <time name="dav">    0.43    0.43</time>
   <time name="total">    0.43    0.43</time>
   <energy>
    <i name="e_fr_energy">    -42.32310876 </i>
    <i name="e_wo_entrp">    -42.32310876 </i>
    <i name="e_0_energy">    -42.32310876 </i>
   </energy>
  </scstep>
  <scstep>
   <time name="dav">    0.52    0.52</time>
   <time name="total">    0.52    0.52</time>
   <energy>
    <i name="e_fr_energy">    -43.06837393 </i>
    <i name="e_wo_entrp">    -43.06837393 </i>
    <i name="e_0_energy">    -43.06837393 </i>
   </energy>
  </scstep>
  <scstep>
   <time name="dav">    0.50    0.50</time>
   <time name="total">    0.52    0.53</time>
   <energy>
    <i name="e_fr_energy">    -43.08600430 </i>
    <i name="e_wo_entrp">    -43.08600430 </i>
    <i name="e_0_energy">    -43.08600430 </i>
   </energy>
  </scstep>
  <scstep>
   <time name="dav">    0.46    0.46</time>
   <time name="total">    0.55    0.56</time>
   <energy>
    <i name="e_fr_energy">    -42.85359978 </i>
    <i name="e_wo_entrp">    -42.85359978 </i>
    <i name="e_0_energy">    -42.85359978 </i>
   </energy>
  </scstep>
  <scstep>
   <time name="dav">    0.46    0.46</time>
   <time name="total">    0.55    0.55</time>
   <energy>
    <i name="e_fr_energy">    -42.74990957 </i>
    <i name="e_wo_entrp">    -42.74990957 </i>
    <i name="e_0_energy">    -42.74990957 </i>
   </energy>
  </scstep>
  <scstep>
   <time name="dav">    0.46    0.46</time>
   <time name="total">    0.55    0.55</time>
   <energy>
    <i name="e_fr_energy">    -42.75033793 </i>
    <i name="e_wo_entrp">    -42.75033793 </i>
    <i name="e_0_energy">    -42.75033793 </i>
   </energy>
  </scstep>
  <scstep>
   <time name="dav">    0.53    0.53</time>
   <time name="total">    0.62    0.63</time>
   <energy>
    <i name="e_fr_energy">    -42.75011412 </i>
    <i name="e_wo_entrp">    -42.75011412 </i>
    <i name="e_0_energy">    -42.75011412 </i>
   </energy>
  </scstep>
  <scstep>
   <time name="dav">    0.44    0.44</time>
   <time name="total">    0.54    0.54</time>
   <energy>
    <i name="e_fr_energy">    -42.74986957 </i>
    <i name="e_wo_entrp">    -42.74986957 </i>
    <i name="e_0_energy">    -42.74986957 </i>
   </energy>
  </scstep>
  <scstep>
   <time name="dav">    0.47    0.47</time>
   <time name="total">    0.56    0.57</time>
   <energy>
    <i name="e_fr_energy">    -42.74980528 </i>
    <i name="e_wo_entrp">    -42.74980528 </i>
    <i name="e_0_energy">    -42.74980528 </i>
   </energy>
  </scstep>
  <scstep>
   <time name="dav">    0.43    0.43</time>
   <time name="total">    0.52    0.53</time>
   <energy>
    <i name="e_fr_energy">    -42.74985586 </i>
    <i name="e_wo_entrp">    -42.74985586 </i>
    <i name="e_0_energy">    -42.74985586 </i>
   </energy>
  </scstep>
  <scstep>
   <time name="dav">    0.38    0.38</time>
   <time name="total">    0.48    0.48</time>
   <energy>
    <i name="e_fr_energy">    -42.74997450 </i>
    <i name="e_wo_entrp">    -42.74997450 </i>
    <i name="e_0_energy">    -42.74997450 </i>
   </energy>
  </scstep>
  <scstep>
   <time name="dav">    0.39    0.39</time>
   <time name="total">    0.48    0.48</time>
   <energy>
    <i name="e_fr_energy">    -42.75018906 </i>
    <i name="e_wo_entrp">    -42.75018906 </i>
    <i name="e_0_energy">    -42.75018906 </i>
   </energy>
  </scstep>
  <scstep>
   <time name="dav">    0.36    0.36</time>
   <time name="total">    0.45    0.45</time>
   <energy>
    <i name="e_fr_energy">    -42.75030027 </i>
    <i name="e_wo_entrp">    -42.75030027 </i>
    <i name="e_0_energy">    -42.75030027 </i>
   </energy>
  </scstep>
  <scstep>
   <time name="dav">    0.34    0.34</time>
   <time name="total">    0.44    0.44</time>
   <energy>
    <i name="e_fr_energy">    -42.75035249 </i>
    <i name="e_wo_entrp">    -42.75035249 </i>
    <i name="e_0_energy">    -42.75035249 </i>
   </energy>
  </scstep>
  <scstep>
   <time name="dav">    0.33    0.33</time>
   <time name="total">    0.43    0.43</time>
   <energy>
    <i name="e_fr_energy">    -42.75038807 </i>
    <i name="e_wo_entrp">    -42.75038807 </i>
    <i name="e_0_energy">    -42.75038807 </i>
   </energy>
  </scstep>
  <scstep>
   <time name="dav">    0.30    0.31</time>
   <time name="total">    0.46    0.46</time>
   <energy>
    <i name="alphaZ">     16.02894242 </i>
    <i name="ewald">   7853.93710242 </i>
    <i name="hartreedc">  -9135.05104444 </i>
    <i name="XCdc">     28.72658648 </i>
    <i name="pawpsdc">   4225.95436256 </i>
    <i name="pawaedc">  -4161.27857373 </i>
    <i name="eentropy">     -0.00000000 </i>
    <i name="bandstr">   -279.39235149 </i>
    <i name="atom">   1408.32458022 </i>
    <i name="e_fr_energy">    -42.75039556 </i>
    <i name="e_wo_entrp">    -42.75039556 </i>
    <i name="e_0_energy">    -42.75039556 </i>
   </energy>
  </scstep>
  <structure>
   <crystal>
    <varray name="basis" >
     <v>       3.34288600       0.00000000       0.00000000 </v>
     <v>       0.00000000      27.37286400       0.00000000 </v>
     <v>       0.00000000       0.00000000       4.37483100 </v>
    </varray>
    <i name="volume">    400.31612759 </i>
    <varray name="rec_basis" >
     <v>       0.29914272       0.00000000       0.00000000 </v>
     <v>       0.00000000       0.03653253       0.00000000 </v>
     <v>       0.00000000       0.00000000       0.22858026 </v>
    </varray>
   </crystal>
   <varray name="positions" >
    <v>       0.00000000       0.36532500       0.91892400 </v>
    <v>       0.50000000       0.36532500       0.58107600 </v>
    <v>       0.00000000       0.44362600       0.08107600 </v>
    <v>       0.50000000       0.44362600       0.41892400 </v>
    <v>       0.00000000       0.55637400       0.91892400 </v>
    <v>       0.50000000       0.55637400       0.58107600 </v>
    <v>       0.00000000       0.63467500       0.08107600 </v>
    <v>       0.50000000       0.63467500       0.41892400 </v>
   </varray>
  </structure>
  <varray name="forces" >
   <v>       0.00000000      -0.08478100      -0.12525368 </v>
   <v>       0.00000000      -0.08478100       0.12525368 </v>
   <v>       0.00000000      -0.12946322      -0.07764563 </v>
   <v>      -0.00000000      -0.12946322       0.07764563 </v>
   <v>       0.00000000       0.12946322       0.07764563 </v>
   <v>       0.00000000       0.12946322      -0.07764563 </v>
   <v>      -0.00000000       0.08478100       0.12525368 </v>
   <v>       0.00000000       0.08478100      -0.12525368 </v>
  </varray>
  <varray name="stress" >
   <v>      -2.16210453       0.00000000       0.00000000 </v>
   <v>       0.00000000       7.92445821       0.00000000 </v>
   <v>       0.00000000      -0.00000000       1.40792729 </v>
  </varray>
  <energy>
   <i name="e_fr_energy">    -44.04882465 </i>
   <i name="e_wo_entrp">    -44.04882465 </i>
   <i name="e_0_energy">     -0.00000000 </i>
  </energy>
  <time name="totalsc">   10.12   10.29</time>
  <eigenvalues>
   <array>
    <dimension dim="1">band</dimension>
    <dimension dim="2">kpoint</dimension>
    <dimension dim="3">spin</dimension>
    <field>eigene</field>
    <field>occ</field>
    <set>
     <set comment="spin 1">
      <set comment="kpoint 1">
       <r>  -15.9363    1.0000 </r>
       <r>  -15.7935    1.0000 </r>
       <r>  -13.4224    1.0000 </r>
       <r>  -13.1108    1.0000 </r>
       <r>   -9.7115    1.0000 </r>
       <r>   -9.5931    1.0000 </r>
       <r>   -6.9511    1.0000 </r>
       <r>   -6.3214    1.0000 </r>
       <r>   -5.6709    1.0000 </r>
       <r>   -5.5501    1.0000 </r>
       <r>   -5.1334    1.0000 </r>
       <r>   -5.0053    1.0000 </r>
       <r>   -4.4784    1.0000 </r>
       <r>   -4.3707    1.0000 </r>
       <r>   -2.9459    1.0000 </r>
       <r>   -2.8015    1.0000 </r>
       <r>   -2.6469    1.0000 </r>
       <r>   -2.3826    1.0000 </r>
       <r>   -1.3462    1.0000 </r>
       <r>   -0.2130    1.0000 </r>
       <r>   -0.1024    0.0000 </r>
       <r>    0.4529    0.0000 </r>
       <r>    0.5110    0.0000 </r>
       <r>    0.7767    0.0000 </r>
       <r>    1.6737    0.0000 </r>
       <r>    1.8211    0.0000 </r>
       <r>    2.5984    0.0000 </r>
       <r>    2.7136    0.0000 </r>
      </set>
      <set comment="kpoint 2">
       <r>  -15.6137    1.0000 </r>
       <r>  -15.4717    1.0000 </r>
       <r>  -13.0875    1.0000 </r>
       <r>  -12.7754    1.0000 </r>
       <r>  -10.0293    1.0000 </r>
       <r>   -9.9110    1.0000 </r>
       <r>   -6.6818    1.0000 </r>
       <r>   -6.2686    1.0000 </r>
       <r>   -6.0765    1.0000 </r>
       <r>   -5.7416    1.0000 </r>
       <r>   -5.5752    1.0000 </r>
       <r>   -5.4581    1.0000 </r>
       <r>   -5.2739    1.0000 </r>
       <r>   -4.8608    1.0000 </r>
       <r>   -3.7641    1.0000 </r>
       <r>   -3.4661    1.0000 </r>
       <r>   -2.8292    1.0000 </r>
       <r>   -2.2059    1.0000 </r>
       <r>   -1.5440    1.0000 </r>
       <r>   -0.3441    1.0000 </r>
       <r>    0.1813    0.0000 </r>
       <r>    0.7396    0.0000 </r>
       <r>    1.3085    0.0000 </r>
       <r>    1.3695    0.0000 </r>
       <r>    2.6722    0.0000 </r>
       <r>    2.8357    0.0000 </r>
       <r>    3.1444    0.0000 </r>
       <r>    3.2591    0.0000 </r>
      </set>
      <set comment="kpoint 3">
       <r>  -14.6639    1.0000 </r>
       <r>  -14.5246    1.0000 </r>
       <r>  -12.0924    1.0000 </r>
       <r>  -11.7779    1.0000 </r>
       <r>  -11.3585    1.0000 </r>
       <r>  -11.2329    1.0000 </r>
       <r>   -8.3459    1.0000 </r>
       <r>   -7.9867    1.0000 </r>
       <r>   -6.0237    1.0000 </r>
       <r>   -5.9663    1.0000 </r>
       <r>   -5.9167    1.0000 </r>
       <r>   -5.4914    1.0000 </r>
       <r>   -4.5498    1.0000 </r>
       <r>   -4.1333    1.0000 </r>
       <r>   -3.8081    1.0000 </r>
       <r>   -3.3350    1.0000 </r>
       <r>   -2.9718    1.0000 </r>
       <r>   -2.3310    1.0000 </r>
       <r>   -2.1883    1.0000 </r>
       <r>   -1.2576    1.0000 </r>
       <r>    0.0969    0.0000 </r>
       <r>    0.1701    0.0000 </r>
       <r>    1.0655    0.0000 </r>
       <r>    1.1454    0.0000 </r>
       <r>    1.5982    0.0000 </r>
       <r>    1.6756    0.0000 </r>
       <r>    1.6822    0.0000 </r>
       <r>    2.1640    0.0000 </r>
      </set>
      <set comment="kpoint 4">
       <r>  -13.1616    1.0000 </r>
       <r>  -13.1616    1.0000 </r>
       <r>  -13.0275    1.0000 </r>
       <r>  -13.0275    1.0000 </r>
       <r>  -10.4737    1.0000 </r>
       <r>  -10.4737    1.0000 </r>
       <r>  -10.1502    1.0000 </r>
       <r>  -10.1502    1.0000 </r>
       <r>   -5.5279    1.0000 </r>
       <r>   -5.5279    1.0000 </r>
       <r>   -5.3858    1.0000 </r>
       <r>   -5.3858    1.0000 </r>
       <r>   -3.9792    1.0000 </r>
       <r>   -3.9792    1.0000 </r>
       <r>   -3.3836    1.0000 </r>
       <r>   -3.3836    1.0000 </r>
       <r>   -3.0963    1.0000 </r>
       <r>   -3.0963    1.0000 </r>
       <r>   -2.2509    1.0000 </r>
       <r>   -2.2509    1.0000 </r>
       <r>    0.2723    0.0000 </r>
       <r>    0.2723    0.0000 </r>
       <r>    0.8218    0.0000 </r>
       <r>    0.8218    0.0000 </r>
       <r>    1.0315    0.0000 </r>
       <r>    1.0315    0.0000 </r>
       <r>    1.1214    0.0000 </r>
       <r>    1.1214    0.0000 </r>
      </set>
      <set comment="kpoint 5">
       <r>  -15.7796    1.0000 </r>
       <r>  -15.6414    1.0000 </r>
       <r>  -13.5171    1.0000 </r>
       <r>  -13.2950    1.0000 </r>
       <r>   -9.9020    1.0000 </r>
       <r>   -9.8523    1.0000 </r>
       <r>   -7.3159    1.0000 </r>
       <r>   -7.1662    1.0000 </r>
       <r>   -5.5930    1.0000 </r>
       <r>   -5.1009    1.0000 </r>
       <r>   -4.7438    1.0000 </r>
       <r>   -4.3941    1.0000 </r>
       <r>   -4.3539    1.0000 </r>
       <r>   -4.2520    1.0000 </r>
       <r>   -2.8569    1.0000 </r>
       <r>   -2.7353    1.0000 </r>
       <r>   -2.1641    1.0000 </r>
       <r>   -1.9830    1.0000 </r>
       <r>   -1.8073    1.0000 </r>
       <r>   -1.1106    1.0000 </r>
       <r>    0.6589    0.0000 </r>
       <r>    0.6759    0.0000 </r>
       <r>    0.8458    0.0000 </r>
       <r>    1.2878    0.0000 </r>
       <r>    1.4171    0.0000 </r>
       <r>    1.4958    0.0000 </r>
       <r>    2.3933    0.0000 </r>
       <r>    2.4279    0.0000 </r>
      </set>
      <set comment="kpoint 6">
       <r>  -15.4592    1.0000 </r>
       <r>  -15.3217    1.0000 </r>
       <r>  -13.1923    1.0000 </r>
       <r>  -12.9759    1.0000 </r>
       <r>  -10.0443    1.0000 </r>
       <r>  -10.0190    1.0000 </r>
       <r>   -7.2915    1.0000 </r>
       <r>   -7.0454    1.0000 </r>
       <r>   -6.0266    1.0000 </r>
       <r>   -5.9549    1.0000 </r>
       <r>   -5.5880    1.0000 </r>
       <r>   -5.2407    1.0000 </r>
       <r>   -4.2297    1.0000 </r>
       <r>   -4.1301    1.0000 </r>
       <r>   -3.9544    1.0000 </r>
       <r>   -3.7892    1.0000 </r>
       <r>   -2.1617    1.0000 </r>
       <r>   -2.1511    1.0000 </r>
       <r>   -1.8626    1.0000 </r>
       <r>   -1.0473    1.0000 </r>
       <r>    0.7630    0.0000 </r>
       <r>    1.0922    0.0000 </r>
       <r>    1.4325    0.0000 </r>
       <r>    1.5254    0.0000 </r>
       <r>    2.5164    0.0000 </r>
       <r>    2.6897    0.0000 </r>
       <r>    3.1902    0.0000 </r>
       <r>    3.2329    0.0000 </r>
      </set>
      <set comment="kpoint 7">
       <r>  -14.5193    1.0000 </r>
       <r>  -14.3842    1.0000 </r>
       <r>  -12.2898    1.0000 </r>
       <r>  -12.1535    1.0000 </r>
       <r>  -11.0093    1.0000 </r>
       <r>  -10.9760    1.0000 </r>
       <r>   -8.5029    1.0000 </r>
       <r>   -8.1869    1.0000 </r>
       <r>   -6.5781    1.0000 </r>
       <r>   -6.5090    1.0000 </r>
       <r>   -5.8170    1.0000 </r>
       <r>   -5.6124    1.0000 </r>
       <r>   -4.2371    1.0000 </r>
       <r>   -4.0357    1.0000 </r>
       <r>   -3.9135    1.0000 </r>
       <r>   -3.6347    1.0000 </r>
       <r>   -3.0711    1.0000 </r>
       <r>   -2.4211    1.0000 </r>
       <r>   -2.2665    1.0000 </r>
       <r>   -1.3434    1.0000 </r>
       <r>    0.7896    0.0000 </r>
       <r>    0.9255    0.0000 </r>
       <r>    1.1300    0.0000 </r>
       <r>    1.1433    0.0000 </r>
       <r>    1.4729    0.0000 </r>
       <r>    1.6890    0.0000 </r>
       <r>    2.0728    0.0000 </r>
       <r>    2.3753    0.0000 </r>
      </set>
      <set comment="kpoint 8">
       <r>  -13.0652    1.0000 </r>
       <r>  -13.0652    1.0000 </r>
       <r>  -12.9346    1.0000 </r>
       <r>  -12.9346    1.0000 </r>
       <r>  -10.4926    1.0000 </r>
       <r>  -10.4926    1.0000 </r>
       <r>  -10.2154    1.0000 </r>
       <r>  -10.2154    1.0000 </r>
       <r>   -5.8572    1.0000 </r>
       <r>   -5.8572    1.0000 </r>
       <r>   -5.6201    1.0000 </r>
       <r>   -5.6201    1.0000 </r>
       <r>   -4.5252    1.0000 </r>
       <r>   -4.5252    1.0000 </r>
       <r>   -3.9197    1.0000 </r>
       <r>   -3.9197    1.0000 </r>
       <r>   -2.8279    1.0000 </r>
       <r>   -2.8279    1.0000 </r>
       <r>   -1.8250    1.0000 </r>
       <r>   -1.8250    1.0000 </r>
       <r>    0.3103    0.0000 </r>
       <r>    0.3103    0.0000 </r>
       <r>    0.7724    0.0000 </r>
       <r>    0.7724    0.0000 </r>
       <r>    2.0224    0.0000 </r>
       <r>    2.0224    0.0000 </r>
       <r>    2.4551    0.0000 </r>
       <r>    2.4570    0.0000 </r>
      </set>
      <set comment="kpoint 9">
       <r>  -15.3267    1.0000 </r>
       <r>  -15.2061    1.0000 </r>
       <r>  -13.9056    1.0000 </r>
       <r>  -13.8647    1.0000 </r>
       <r>  -10.0864    1.0000 </r>
       <r>   -9.7743    1.0000 </r>
       <r>   -8.6082    1.0000 </r>
       <r>   -8.1460    1.0000 </r>
       <r>   -5.3345    1.0000 </r>
       <r>   -4.2674    1.0000 </r>
       <r>   -4.0058    1.0000 </r>
       <r>   -3.9243    1.0000 </r>
       <r>   -3.5101    1.0000 </r>
       <r>   -3.3783    1.0000 </r>
       <r>   -3.0716    1.0000 </r>
       <r>   -3.0307    1.0000 </r>
       <r>   -2.9643    1.0000 </r>
       <r>   -2.1782    1.0000 </r>
       <r>   -0.9825    1.0000 </r>
       <r>   -0.9160    1.0000 </r>
       <r>    0.7614    0.0000 </r>
       <r>    0.9041    0.0000 </r>
       <r>    0.9862    0.0000 </r>
       <r>    1.1948    0.0000 </r>
       <r>    1.7597    0.0000 </r>
       <r>    2.1294    0.0000 </r>
       <r>    2.2331    0.0000 </r>
       <r>    2.4927    0.0000 </r>
      </set>
      <set comment="kpoint 10">
       <r>  -15.0126    1.0000 </r>
       <r>  -14.8924    1.0000 </r>
       <r>  -13.5983    1.0000 </r>
       <r>  -13.5636    1.0000 </r>
       <r>  -10.0290    1.0000 </r>
       <r>   -9.7511    1.0000 </r>
       <r>   -8.4927    1.0000 </r>
       <r>   -8.0514    1.0000 </r>
       <r>   -5.8759    1.0000 </r>
       <r>   -5.8516    1.0000 </r>
       <r>   -5.2160    1.0000 </r>
       <r>   -4.9185    1.0000 </r>
       <r>   -4.6018    1.0000 </r>
       <r>   -4.0495    1.0000 </r>
       <r>   -3.3396    1.0000 </r>
       <r>   -2.9204    1.0000 </r>
       <r>   -2.3876    1.0000 </r>
       <r>   -1.9758    1.0000 </r>
       <r>   -1.6939    1.0000 </r>
       <r>   -1.6881    1.0000 </r>
       <r>    1.5732    0.0000 </r>
       <r>    1.6657    0.0000 </r>
       <r>    1.8526    0.0000 </r>
       <r>    2.0552    0.0000 </r>
       <r>    2.3504    0.0000 </r>
       <r>    2.4656    0.0000 </r>
       <r>    3.0503    0.0000 </r>
       <r>    3.1336    0.0000 </r>
      </set>
      <set comment="kpoint 11">
       <r>  -14.1049    1.0000 </r>
       <r>  -13.9850    1.0000 </r>
       <r>  -12.7782    1.0000 </r>
       <r>  -12.7710    1.0000 </r>
       <r>  -10.4741    1.0000 </r>
       <r>  -10.3334    1.0000 </r>
       <r>   -9.0112    1.0000 </r>
       <r>   -8.7656    1.0000 </r>
       <r>   -6.9863    1.0000 </r>
       <r>   -6.8271    1.0000 </r>
       <r>   -6.1552    1.0000 </r>
       <r>   -5.9710    1.0000 </r>
       <r>   -4.5899    1.0000 </r>
       <r>   -4.5876    1.0000 </r>
       <r>   -3.8449    1.0000 </r>
       <r>   -3.6463    1.0000 </r>
       <r>   -3.1186    1.0000 </r>
       <r>   -2.4821    1.0000 </r>
       <r>   -2.2053    1.0000 </r>
       <r>   -1.4392    1.0000 </r>
       <r>    0.9641    0.0000 </r>
       <r>    1.2916    0.0000 </r>
       <r>    1.6705    0.0000 </r>
       <r>    1.9002    0.0000 </r>
       <r>    2.7682    0.0000 </r>
       <r>    2.9725    0.0000 </r>
       <r>    3.0643    0.0000 </r>
       <r>    3.0820    0.0000 </r>
      </set>
      <set comment="kpoint 12">
       <r>  -12.8397    1.0000 </r>
       <r>  -12.8397    1.0000 </r>
       <r>  -12.7190    1.0000 </r>
       <r>  -12.7190    1.0000 </r>
       <r>  -10.5799    1.0000 </r>
       <r>  -10.5799    1.0000 </r>
       <r>  -10.4095    1.0000 </r>
       <r>  -10.4095    1.0000 </r>
       <r>   -6.1989    1.0000 </r>
       <r>   -6.1989    1.0000 </r>
       <r>   -5.8578    1.0000 </r>
       <r>   -5.8578    1.0000 </r>
       <r>   -5.3082    1.0000 </r>
       <r>   -5.3082    1.0000 </r>
       <r>   -4.8047    1.0000 </r>
       <r>   -4.8047    1.0000 </r>
       <r>   -2.8052    1.0000 </r>
       <r>   -2.8052    1.0000 </r>
       <r>   -1.6306    1.0000 </r>
       <r>   -1.6306    1.0000 </r>
       <r>    1.3538    0.0000 </r>
       <r>    1.3538    0.0000 </r>
       <r>    1.8208    0.0000 </r>
       <r>    1.8208    0.0000 </r>
       <r>    2.3062    0.0000 </r>
       <r>    2.3062    0.0000 </r>
       <r>    2.7020    0.0000 </r>
       <r>    2.7020    0.0000 </r>
      </set>
      <set comment="kpoint 13">
       <r>  -14.6676    1.0000 </r>
       <r>  -14.6676    1.0000 </r>
       <r>  -14.5307    1.0000 </r>
       <r>  -14.5307    1.0000 </r>
       <r>   -9.6162    1.0000 </r>
       <r>   -9.6162    1.0000 </r>
       <r>   -9.1503    1.0000 </r>
       <r>   -9.1503    1.0000 </r>
       <r>   -4.5610    1.0000 </r>
       <r>   -4.5610    1.0000 </r>
       <r>   -3.5579    1.0000 </r>
       <r>   -3.5579    1.0000 </r>
       <r>   -3.4265    1.0000 </r>
       <r>   -3.4265    1.0000 </r>
       <r>   -3.3383    1.0000 </r>
       <r>   -3.3383    1.0000 </r>
       <r>   -1.7492    1.0000 </r>
       <r>   -1.7492    1.0000 </r>
       <r>   -1.6208    1.0000 </r>
       <r>   -1.6208    1.0000 </r>
       <r>    0.9622    0.0000 </r>
       <r>    0.9622    0.0000 </r>
       <r>    1.3036    0.0000 </r>
       <r>    1.3036    0.0000 </r>
       <r>    2.3543    0.0000 </r>
       <r>    2.3553    0.0000 </r>
       <r>    2.5801    0.0000 </r>
       <r>    2.5842    0.0000 </r>
      </set>
      <set comment="kpoint 14">
       <r>  -14.3618    1.0000 </r>
       <r>  -14.3618    1.0000 </r>
       <r>  -14.2257    1.0000 </r>
       <r>  -14.2257    1.0000 </r>
       <r>   -9.4842    1.0000 </r>
       <r>   -9.4842    1.0000 </r>
       <r>   -9.0530    1.0000 </r>
       <r>   -9.0530    1.0000 </r>
       <r>   -5.4271    1.0000 </r>
       <r>   -5.4271    1.0000 </r>
       <r>   -5.3261    1.0000 </r>
       <r>   -5.3261    1.0000 </r>
       <r>   -4.3375    1.0000 </r>
       <r>   -4.3375    1.0000 </r>
       <r>   -3.2786    1.0000 </r>
       <r>   -3.2786    1.0000 </r>
       <r>   -1.7956    1.0000 </r>
       <r>   -1.7956    1.0000 </r>
       <r>   -1.6692    1.0000 </r>
       <r>   -1.6692    1.0000 </r>
       <r>    1.7752    0.0000 </r>
       <r>    1.7752    0.0000 </r>
       <r>    2.0147    0.0000 </r>
       <r>    2.0147    0.0000 </r>
       <r>    2.4597    0.0000 </r>
       <r>    2.4597    0.0000 </r>
       <r>    3.2682    0.0000 </r>
       <r>    3.2687    0.0000 </r>
      </set>
      <set comment="kpoint 15">
       <r>  -13.5056    1.0000 </r>
       <r>  -13.5056    1.0000 </r>
       <r>  -13.3741    1.0000 </r>
       <r>  -13.3741    1.0000 </r>
       <r>   -9.7617    1.0000 </r>
       <r>   -9.7617    1.0000 </r>
       <r>   -9.5479    1.0000 </r>
       <r>   -9.5479    1.0000 </r>
       <r>   -6.7890    1.0000 </r>
       <r>   -6.7890    1.0000 </r>
       <r>   -6.5401    1.0000 </r>
       <r>   -6.5401    1.0000 </r>
       <r>   -4.3563    1.0000 </r>
       <r>   -4.3563    1.0000 </r>
       <r>   -4.1818    1.0000 </r>
       <r>   -4.1818    1.0000 </r>
       <r>   -2.8386    1.0000 </r>
       <r>   -2.8386    1.0000 </r>
       <r>   -1.9045    1.0000 </r>
       <r>   -1.9045    1.0000 </r>
       <r>    2.0148    0.0000 </r>
       <r>    2.0148    0.0000 </r>
       <r>    2.1885    0.0000 </r>
       <r>    2.1885    0.0000 </r>
       <r>    2.8942    0.0000 </r>
       <r>    2.8942    0.0000 </r>
       <r>    3.0492    0.0000 </r>
       <r>    3.0492    0.0000 </r>
      </set>
      <set comment="kpoint 16">
       <r>  -12.7023    1.0000 </r>
       <r>  -12.7023    1.0000 </r>
       <r>  -12.5893    1.0000 </r>
       <r>  -12.5893    1.0000 </r>
       <r>  -10.6584    1.0000 </r>
       <r>  -10.6584    1.0000 </r>
       <r>  -10.5481    1.0000 </r>
       <r>  -10.5481    1.0000 </r>
       <r>   -6.0420    1.0000 </r>
       <r>   -6.0420    1.0000 </r>
       <r>   -5.9511    1.0000 </r>
       <r>   -5.9511    1.0000 </r>
       <r>   -5.6046    1.0000 </r>
       <r>   -5.6046    1.0000 </r>
       <r>   -5.4930    1.0000 </r>
       <r>   -5.4930    1.0000 </r>
       <r>   -2.7951    1.0000 </r>
       <r>   -2.7951    1.0000 </r>
       <r>   -1.5617    1.0000 </r>
       <r>   -1.5617    1.0000 </r>
       <r>    1.2672    0.0000 </r>
       <r>    1.2672    0.0000 </r>
       <r>    1.8702    0.0000 </r>
       <r>    1.8702    0.0000 </r>
       <r>    3.6957    0.0000 </r>
       <r>    3.6957    0.0000 </r>
       <r>    3.7735    0.0000 </r>
       <r>    3.7735    0.0000 </r>
      </set>
     </set>
    </set>
   </array>
  </eigenvalues>
  <separator name="orbital magnetization" >
   <v name="MAGDIPOLOUT">      0.00000000      0.00000000      0.00000000</v>
  </separator>
  <dos>
   <i name="efermi">     -0.16470171 </i>
   <total>
    <array>
     <dimension dim="1">gridpoints</dimension>
     <dimension dim="2">spin</dimension>
     <field>energy</field>
     <field>total</field>
     <field>integrated</field>
     <set>
      <set comment="spin 1">
       <r>   -16.9218     0.0000     0.0000 </r>
       <r>   -16.9110     0.0000     0.0000 </r>
       <r>   -16.9001     0.0000     0.0000 </r>
       <r>   -16.8893     0.0000     0.0000 </r>
       <r>   -16.8785     0.0000     0.0000 </r>
       <r>   -16.8676     0.0000     0.0000 </r>
       <r>   -16.8568     0.0000     0.0000 </r>
       <r>   -16.8459     0.0000     0.0000 </r>
       <r>   -16.8351     0.0000     0.0000 </r>
       <r>   -16.8242     0.0000     0.0000 </r>
       <r>   -16.8134     0.0000     0.0000 </r>
       <r>   -16.8025     0.0000     0.0000 </r>
       <r>   -16.7917     0.0000     0.0000 </r>
       <r>   -16.7808     0.0000     0.0000 </r>
       <r>   -16.7700     0.0000     0.0000 </r>
       <r>   -16.7591     0.0000     0.0000 </r>
       <r>   -16.7483     0.0000     0.0000 </r>
       <r>   -16.7375     0.0000     0.0000 </r>
       <r>   -16.7266     0.0000     0.0000 </r>
       <r>   -16.7158     0.0000     0.0000 </r>
       <r>   -16.7049     0.0000     0.0000 </r>
       <r>   -16.6941     0.0000     0.0000 </r>
       <r>   -16.6832     0.0000     0.0000 </r>
       <r>   -16.6724     0.0000     0.0000 </r>
       <r>   -16.6615     0.0000     0.0000 </r>
       <r>   -16.6507     0.0000     0.0000 </r>
       <r>   -16.6398     0.0000     0.0000 </r>
       <r>   -16.6290     0.0000     0.0000 </r>
       <r>   -16.6182     0.0000     0.0000 </r>
       <r>   -16.6073     0.0000     0.0000 </r>
       <r>   -16.5965     0.0000     0.0000 </r>
       <r>   -16.5856     0.0000     0.0000 </r>
       <r>   -16.5748     0.0000     0.0000 </r>
       <r>   -16.5639     0.0000     0.0000 </r>
       <r>   -16.5531     0.0000     0.0000 </r>
       <r>   -16.5422     0.0000     0.0000 </r>
       <r>   -16.5314     0.0000     0.0000 </r>
       <r>   -16.5205     0.0000     0.0000 </r>
       <r>   -16.5097     0.0000     0.0000 </r>
       <r>   -16.4988     0.0000     0.0000 </r>
       <r>   -16.4880     0.0000     0.0000 </r>
       <r>   -16.4772     0.0000     0.0000 </r>
       <r>   -16.4663     0.0000     0.0000 </r>
       <r>   -16.4555     0.0000     0.0000 </r>
       <r>   -16.4446     0.0000     0.0000 </r>
       <r>   -16.4338     0.0000     0.0000 </r>
       <r>   -16.4229     0.0000     0.0000 </r>
       <r>   -16.4121     0.0000     0.0000 </r>
       <r>   -16.4012     0.0000     0.0000 </r>
       <r>   -16.3904     0.0000     0.0000 </r>
       <r>   -16.3795     0.0000     0.0000 </r>
       <r>   -16.3687     0.0000     0.0000 </r>
       <r>   -16.3579     0.0000     0.0000 </r>
       <r>   -16.3470     0.0000     0.0000 </r>
       <r>   -16.3362     0.0000     0.0000 </r>
       <r>   -16.3253     0.0000     0.0000 </r>
       <r>   -16.3145     0.0000     0.0000 </r>
       <r>   -16.3036     0.0000     0.0000 </r>
       <r>   -16.2928     0.0000     0.0000 </r>
       <r>   -16.2819     0.0000     0.0000 </r>
       <r>   -16.2711     0.0000     0.0000 </r>
       <r>   -16.2602     0.0000     0.0000 </r>
       <r>   -16.2494     0.0000     0.0000 </r>
       <r>   -16.2385     0.0000     0.0000 </r>
       <r>   -16.2277     0.0000     0.0000 </r>
       <r>   -16.2169     0.0000     0.0000 </r>
       <r>   -16.2060     0.0000     0.0000 </r>
       <r>   -16.1952     0.0000     0.0000 </r>
       <r>   -16.1843     0.0000     0.0000 </r>
       <r>   -16.1735     0.0000     0.0000 </r>
       <r>   -16.1626     0.0000     0.0000 </r>
       <r>   -16.1518     0.0000     0.0000 </r>
       <r>   -16.1409     0.0000     0.0000 </r>
       <r>   -16.1301     0.0000     0.0000 </r>
       <r>   -16.1192     0.0000     0.0000 </r>
       <r>   -16.1084     0.0000     0.0000 </r>
       <r>   -16.0976     0.0000     0.0000 </r>
       <r>   -16.0867     0.0000     0.0000 </r>
       <r>   -16.0759     0.0000     0.0000 </r>
       <r>   -16.0650     0.0000     0.0000 </r>
       <r>   -16.0542     0.0000     0.0000 </r>
       <r>   -16.0433     0.0000     0.0000 </r>
       <r>   -16.0325     0.0000     0.0000 </r>
       <r>   -16.0216     0.0000     0.0000 </r>
       <r>   -16.0108     0.0000     0.0000 </r>
       <r>   -15.9999     0.0000     0.0000 </r>
       <r>   -15.9891     0.0000     0.0000 </r>
       <r>   -15.9782     0.0000     0.0000 </r>
       <r>   -15.9674     0.0000     0.0000 </r>
       <r>   -15.9566     0.0109     0.0001 </r>
       <r>   -15.9457     0.4636     0.0051 </r>
       <r>   -15.9349     2.5109     0.0324 </r>
       <r>   -15.9240     1.9285     0.0533 </r>
       <r>   -15.9132     0.2056     0.0555 </r>
       <r>   -15.9023     0.0027     0.0556 </r>
       <r>   -15.8915     0.0000     0.0556 </r>
       <r>   -15.8806     0.0000     0.0556 </r>
       <r>   -15.8698     0.0000     0.0556 </r>
       <r>   -15.8589     0.0000     0.0556 </r>
       <r>   -15.8481     0.0000     0.0556 </r>
       <r>   -15.8373     0.0000     0.0556 </r>
       <r>   -15.8264     0.0000     0.0556 </r>
       <r>   -15.8156     0.0047     0.0556 </r>
       <r>   -15.8047     0.2870     0.0587 </r>
       <r>   -15.7939     2.3925     0.0847 </r>
       <r>   -15.7830     5.3238     0.1424 </r>
       <r>   -15.7722     5.8606     0.2060 </r>
       <r>   -15.7613     1.4491     0.2217 </r>
       <r>   -15.7505     0.0491     0.2222 </r>
       <r>   -15.7396     0.0002     0.2222 </r>
       <r>   -15.7288     0.0000     0.2222 </r>
       <r>   -15.7179     0.0000     0.2222 </r>
       <r>   -15.7071     0.0000     0.2222 </r>
       <r>   -15.6963     0.0000     0.2222 </r>
       <r>   -15.6854     0.0000     0.2222 </r>
       <r>   -15.6746     0.0000     0.2222 </r>
       <r>   -15.6637     0.0081     0.2223 </r>
       <r>   -15.6529     0.5267     0.2280 </r>
       <r>   -15.6420     4.2205     0.2738 </r>
       <r>   -15.6312     4.7968     0.3258 </r>
       <r>   -15.6203     2.4725     0.3526 </r>
       <r>   -15.6095     5.6551     0.4140 </r>
       <r>   -15.5986     2.6412     0.4426 </r>
       <r>   -15.5878     0.1670     0.4444 </r>
       <r>   -15.5770     0.0013     0.4444 </r>
       <r>   -15.5661     0.0000     0.4444 </r>
       <r>   -15.5553     0.0000     0.4444 </r>
       <r>   -15.5444     0.0000     0.4444 </r>
       <r>   -15.5336     0.0000     0.4444 </r>
       <r>   -15.5227     0.0000     0.4444 </r>
       <r>   -15.5119     0.0000     0.4444 </r>
       <r>   -15.5010     0.0002     0.4444 </r>
       <r>   -15.4902     0.0462     0.4449 </r>
       <r>   -15.4793     1.4400     0.4606 </r>
       <r>   -15.4685     7.3641     0.5404 </r>
       <r>   -15.4576    13.1589     0.6832 </r>
       <r>   -15.4468     7.9026     0.7689 </r>
       <r>   -15.4360     0.8113     0.7777 </r>
       <r>   -15.4251     0.0105     0.7778 </r>
       <r>   -15.4143     0.0000     0.7778 </r>
       <r>   -15.4034     0.0000     0.7778 </r>
       <r>   -15.3926     0.0000     0.7778 </r>
       <r>   -15.3817     0.0000     0.7778 </r>
       <r>   -15.3709     0.0000     0.7778 </r>
       <r>   -15.3600     0.0000     0.7778 </r>
       <r>   -15.3492     0.0085     0.7779 </r>
       <r>   -15.3383     0.6870     0.7853 </r>
       <r>   -15.3275     8.1588     0.8738 </r>
       <r>   -15.3167    16.1912     1.0494 </r>
       <r>   -15.3058     5.4182     1.1082 </r>
       <r>   -15.2950     0.2684     1.1111 </r>
       <r>   -15.2841     0.0017     1.1111 </r>
       <r>   -15.2733     0.0000     1.1111 </r>
       <r>   -15.2624     0.0000     1.1111 </r>
       <r>   -15.2516     0.0000     1.1111 </r>
       <r>   -15.2407     0.0000     1.1111 </r>
       <r>   -15.2299     0.0039     1.1112 </r>
       <r>   -15.2190     0.3391     1.1148 </r>
       <r>   -15.2082     3.5788     1.1536 </r>
       <r>   -15.1973     5.2136     1.2102 </r>
       <r>   -15.1865     1.0805     1.2219 </r>
       <r>   -15.1757     0.0287     1.2222 </r>
       <r>   -15.1648     0.0001     1.2222 </r>
       <r>   -15.1540     0.0000     1.2222 </r>
       <r>   -15.1431     0.0000     1.2222 </r>
       <r>   -15.1323     0.0000     1.2222 </r>
       <r>   -15.1214     0.0000     1.2222 </r>
       <r>   -15.1106     0.0000     1.2222 </r>
       <r>   -15.0997     0.0000     1.2222 </r>
       <r>   -15.0889     0.0000     1.2222 </r>
       <r>   -15.0780     0.0000     1.2222 </r>
       <r>   -15.0672     0.0000     1.2222 </r>
       <r>   -15.0564     0.0000     1.2222 </r>
       <r>   -15.0455     0.0000     1.2222 </r>
       <r>   -15.0347     0.0189     1.2224 </r>
       <r>   -15.0238     1.1513     1.2349 </r>
       <r>   -15.0130     8.7015     1.3293 </r>
       <r>   -15.0021     9.2171     1.4293 </r>
       <r>   -14.9913     1.3747     1.4442 </r>
       <r>   -14.9804     0.0257     1.4444 </r>
       <r>   -14.9696     0.0001     1.4444 </r>
       <r>   -14.9587     0.0000     1.4444 </r>
       <r>   -14.9479     0.0000     1.4444 </r>
       <r>   -14.9370     0.0000     1.4444 </r>
       <r>   -14.9262     0.0000     1.4444 </r>
       <r>   -14.9154     0.0119     1.4446 </r>
       <r>   -14.9045     0.8729     1.4540 </r>
       <r>   -14.8937     7.8878     1.5396 </r>
       <r>   -14.8828     9.9122     1.6471 </r>
       <r>   -14.8720     1.7645     1.6662 </r>
       <r>   -14.8611     0.0398     1.6667 </r>
       <r>   -14.8503     0.0001     1.6667 </r>
       <r>   -14.8394     0.0000     1.6667 </r>
       <r>   -14.8286     0.0000     1.6667 </r>
       <r>   -14.8177     0.0000     1.6667 </r>
       <r>   -14.8069     0.0000     1.6667 </r>
       <r>   -14.7961     0.0000     1.6667 </r>
       <r>   -14.7852     0.0000     1.6667 </r>
       <r>   -14.7744     0.0000     1.6667 </r>
       <r>   -14.7635     0.0000     1.6667 </r>
       <r>   -14.7527     0.0000     1.6667 </r>
       <r>   -14.7418     0.0000     1.6667 </r>
       <r>   -14.7310     0.0000     1.6667 </r>
       <r>   -14.7201     0.0000     1.6667 </r>
       <r>   -14.7093     0.0000     1.6667 </r>
       <r>   -14.6984     0.0001     1.6667 </r>
       <r>   -14.6876     0.0279     1.6670 </r>
       <r>   -14.6767     1.3230     1.6813 </r>
       <r>   -14.6659     8.6953     1.7756 </r>
       <r>   -14.6551     8.9593     1.8728 </r>
       <r>   -14.6442     1.4507     1.8885 </r>
       <r>   -14.6334     0.0328     1.8889 </r>
       <r>   -14.6225     0.0001     1.8889 </r>
       <r>   -14.6117     0.0000     1.8889 </r>
       <r>   -14.6008     0.0000     1.8889 </r>
       <r>   -14.5900     0.0000     1.8889 </r>
       <r>   -14.5791     0.0000     1.8889 </r>
       <r>   -14.5683     0.0000     1.8889 </r>
       <r>   -14.5574     0.0008     1.8889 </r>
       <r>   -14.5466     0.1345     1.8904 </r>
       <r>   -14.5358     3.0746     1.9237 </r>
       <r>   -14.5249    14.2330     2.0781 </r>
       <r>   -14.5141    18.0539     2.2739 </r>
       <r>   -14.5032     5.2352     2.3307 </r>
       <r>   -14.4924     0.2449     2.3333 </r>
       <r>   -14.4815     0.0014     2.3333 </r>
       <r>   -14.4707     0.0000     2.3333 </r>
       <r>   -14.4598     0.0000     2.3333 </r>
       <r>   -14.4490     0.0000     2.3333 </r>
       <r>   -14.4381     0.0000     2.3333 </r>
       <r>   -14.4273     0.0000     2.3333 </r>
       <r>   -14.4164     0.0001     2.3333 </r>
       <r>   -14.4056     0.0250     2.3336 </r>
       <r>   -14.3948     1.3535     2.3483 </r>
       <r>   -14.3839     9.1902     2.4480 </r>
       <r>   -14.3731     9.8630     2.5549 </r>
       <r>   -14.3622     9.7752     2.6610 </r>
       <r>   -14.3514     9.3260     2.7621 </r>
       <r>   -14.3405     1.4184     2.7775 </r>
       <r>   -14.3297     0.0271     2.7778 </r>
       <r>   -14.3188     0.0001     2.7778 </r>
       <r>   -14.3080     0.0000     2.7778 </r>
       <r>   -14.2971     0.0000     2.7778 </r>
       <r>   -14.2863     0.0000     2.7778 </r>
       <r>   -14.2755     0.0000     2.7778 </r>
       <r>   -14.2646     0.0000     2.7778 </r>
       <r>   -14.2538     0.0008     2.7778 </r>
       <r>   -14.2429     0.1542     2.7795 </r>
       <r>   -14.2321     3.6402     2.8189 </r>
       <r>   -14.2212    11.3326     2.9419 </r>
       <r>   -14.2104     5.0556     2.9967 </r>
       <r>   -14.1995     0.3037     3.0000 </r>
       <r>   -14.1887     0.0022     3.0000 </r>
       <r>   -14.1778     0.0000     3.0000 </r>
       <r>   -14.1670     0.0000     3.0000 </r>
       <r>   -14.1561     0.0000     3.0000 </r>
       <r>   -14.1453     0.0000     3.0000 </r>
       <r>   -14.1345     0.0003     3.0000 </r>
       <r>   -14.1236     0.0848     3.0009 </r>
       <r>   -14.1128     2.6702     3.0299 </r>
       <r>   -14.1019    10.8864     3.1480 </r>
       <r>   -14.0911     6.3379     3.2167 </r>
       <r>   -14.0802     0.5047     3.2222 </r>
       <r>   -14.0694     0.0048     3.2222 </r>
       <r>   -14.0585     0.0000     3.2222 </r>
       <r>   -14.0477     0.0000     3.2222 </r>
       <r>   -14.0368     0.0000     3.2222 </r>
       <r>   -14.0260     0.0000     3.2222 </r>
       <r>   -14.0152     0.0002     3.2222 </r>
       <r>   -14.0043     0.0656     3.2229 </r>
       <r>   -13.9935     2.3264     3.2482 </r>
       <r>   -13.9826    10.5979     3.3631 </r>
       <r>   -13.9718     6.8781     3.4377 </r>
       <r>   -13.9609     0.6143     3.4444 </r>
       <r>   -13.9501     0.0066     3.4444 </r>
       <r>   -13.9392     0.0000     3.4444 </r>
       <r>   -13.9284     0.0065     3.4445 </r>
       <r>   -13.9175     0.4618     3.4495 </r>
       <r>   -13.9067     4.0266     3.4932 </r>
       <r>   -13.8958     4.8909     3.5462 </r>
       <r>   -13.8850     0.8612     3.5556 </r>
       <r>   -13.8742     0.9198     3.5656 </r>
       <r>   -13.8633     4.9849     3.6196 </r>
       <r>   -13.8525     3.9064     3.6620 </r>
       <r>   -13.8416     0.4254     3.6666 </r>
       <r>   -13.8308     0.0057     3.6667 </r>
       <r>   -13.8199     0.0000     3.6667 </r>
       <r>   -13.8091     0.0000     3.6667 </r>
       <r>   -13.7982     0.0000     3.6667 </r>
       <r>   -13.7874     0.0000     3.6667 </r>
       <r>   -13.7765     0.0000     3.6667 </r>
       <r>   -13.7657     0.0000     3.6667 </r>
       <r>   -13.7549     0.0000     3.6667 </r>
       <r>   -13.7440     0.0000     3.6667 </r>
       <r>   -13.7332     0.0000     3.6667 </r>
       <r>   -13.7223     0.0000     3.6667 </r>
       <r>   -13.7115     0.0000     3.6667 </r>
       <r>   -13.7006     0.0000     3.6667 </r>
       <r>   -13.6898     0.0000     3.6667 </r>
       <r>   -13.6789     0.0000     3.6667 </r>
       <r>   -13.6681     0.0000     3.6667 </r>
       <r>   -13.6572     0.0000     3.6667 </r>
       <r>   -13.6464     0.0000     3.6667 </r>
       <r>   -13.6355     0.0000     3.6667 </r>
       <r>   -13.6247     0.0019     3.6667 </r>
       <r>   -13.6139     0.2840     3.6698 </r>
       <r>   -13.6030     4.9006     3.7229 </r>
       <r>   -13.5922    11.3616     3.8461 </r>
       <r>   -13.5813     3.8998     3.8884 </r>
       <r>   -13.5705     3.4346     3.9257 </r>
       <r>   -13.5596    11.2168     4.0473 </r>
       <r>   -13.5488     5.5096     4.1071 </r>
       <r>   -13.5379     0.3833     4.1113 </r>
       <r>   -13.5271     0.8249     4.1202 </r>
       <r>   -13.5162     6.1653     4.1871 </r>
       <r>   -13.5054    13.2742     4.3310 </r>
       <r>   -13.4946     9.2532     4.4314 </r>
       <r>   -13.4837     1.1828     4.4442 </r>
       <r>   -13.4729     0.0196     4.4444 </r>
       <r>   -13.4620     0.0000     4.4444 </r>
       <r>   -13.4512     0.0001     4.4444 </r>
       <r>   -13.4403     0.0285     4.4448 </r>
       <r>   -13.4295     0.7802     4.4532 </r>
       <r>   -13.4186     2.7880     4.4835 </r>
       <r>   -13.4078     1.4257     4.4989 </r>
       <r>   -13.3969     0.1114     4.5001 </r>
       <r>   -13.3861     0.8987     4.5099 </r>
       <r>   -13.3753     7.9706     4.5963 </r>
       <r>   -13.3644     9.8475     4.7031 </r>
       <r>   -13.3536     1.7225     4.7218 </r>
       <r>   -13.3427     0.0381     4.7222 </r>
       <r>   -13.3319     0.0001     4.7222 </r>
       <r>   -13.3210     0.0012     4.7222 </r>
       <r>   -13.3102     0.1601     4.7240 </r>
       <r>   -13.2993     2.5907     4.7521 </r>
       <r>   -13.2885     5.6526     4.8134 </r>
       <r>   -13.2776     1.7670     4.8325 </r>
       <r>   -13.2668     0.0727     4.8333 </r>
       <r>   -13.2559     0.0003     4.8333 </r>
       <r>   -13.2451     0.0000     4.8333 </r>
       <r>   -13.2343     0.0000     4.8333 </r>
       <r>   -13.2234     0.0001     4.8333 </r>
       <r>   -13.2126     0.0417     4.8338 </r>
       <r>   -13.2017     1.8107     4.8534 </r>
       <r>   -13.1909     9.9811     4.9617 </r>
       <r>   -13.1800     7.8454     5.0468 </r>
       <r>   -13.1692     2.2630     5.0713 </r>
       <r>   -13.1583     5.5091     5.1311 </r>
       <r>   -13.1475     3.0498     5.1641 </r>
       <r>   -13.1366     0.2315     5.1667 </r>
       <r>   -13.1258     0.0889     5.1676 </r>
       <r>   -13.1150     1.3445     5.1822 </r>
       <r>   -13.1041     2.9110     5.2138 </r>
       <r>   -13.0933     2.8867     5.2451 </r>
       <r>   -13.0824     5.8872     5.3089 </r>
       <r>   -13.0716     5.9136     5.3731 </r>
       <r>   -13.0607    11.4528     5.4973 </r>
       <r>   -13.0499     5.0736     5.5523 </r>
       <r>   -13.0390     0.8214     5.5612 </r>
       <r>   -13.0282     4.1936     5.6067 </r>
       <r>   -13.0173     4.7527     5.6582 </r>
       <r>   -13.0065     0.7609     5.6665 </r>
       <r>   -12.9956     0.0677     5.6672 </r>
       <r>   -12.9848     2.0556     5.6895 </r>
       <r>   -12.9740    10.3056     5.8013 </r>
       <r>   -12.9631     7.3438     5.8810 </r>
       <r>   -12.9523     0.8504     5.8902 </r>
       <r>   -12.9414     3.3039     5.9260 </r>
       <r>   -12.9306    11.2263     6.0478 </r>
       <r>   -12.9197     5.4759     6.1072 </r>
       <r>   -12.9089     0.3616     6.1111 </r>
       <r>   -12.8980     0.0028     6.1111 </r>
       <r>   -12.8872     0.0000     6.1111 </r>
       <r>   -12.8763     0.0000     6.1111 </r>
       <r>   -12.8655     0.0026     6.1111 </r>
       <r>   -12.8547     0.3445     6.1149 </r>
       <r>   -12.8438     5.3571     6.1730 </r>
       <r>   -12.8330    11.2605     6.2951 </r>
       <r>   -12.8221     3.3899     6.3319 </r>
       <r>   -12.8113     0.1340     6.3333 </r>
       <r>   -12.8004     0.0201     6.3335 </r>
       <r>   -12.7896     1.4041     6.3488 </r>
       <r>   -12.7787    14.3207     6.5041 </r>
       <r>   -12.7679    25.8167     6.7841 </r>
       <r>   -12.7570     9.0974     6.8828 </r>
       <r>   -12.7462     0.5611     6.8889 </r>
       <r>   -12.7353     0.2147     6.8912 </r>
       <r>   -12.7245     4.2507     6.9373 </r>
       <r>   -12.7137    11.9505     7.0669 </r>
       <r>   -12.7028     8.6608     7.1608 </r>
       <r>   -12.6920     4.9170     7.2142 </r>
       <r>   -12.6811     0.7294     7.2221 </r>
       <r>   -12.6703     0.0142     7.2222 </r>
       <r>   -12.6594     0.0000     7.2222 </r>
       <r>   -12.6486     0.0000     7.2222 </r>
       <r>   -12.6377     0.0000     7.2222 </r>
       <r>   -12.6269     0.0000     7.2222 </r>
       <r>   -12.6160     0.0008     7.2222 </r>
       <r>   -12.6052     0.1242     7.2236 </r>
       <r>   -12.5944     2.3002     7.2485 </r>
       <r>   -12.5835     5.6990     7.3103 </r>
       <r>   -12.5727     2.0244     7.3323 </r>
       <r>   -12.5618     0.0954     7.3333 </r>
       <r>   -12.5510     0.0005     7.3333 </r>
       <r>   -12.5401     0.0000     7.3333 </r>
       <r>   -12.5293     0.0000     7.3333 </r>
       <r>   -12.5184     0.0000     7.3333 </r>
       <r>   -12.5076     0.0000     7.3333 </r>
       <r>   -12.4967     0.0000     7.3333 </r>
       <r>   -12.4859     0.0000     7.3333 </r>
       <r>   -12.4750     0.0000     7.3333 </r>
       <r>   -12.4642     0.0000     7.3333 </r>
       <r>   -12.4534     0.0000     7.3333 </r>
       <r>   -12.4425     0.0000     7.3333 </r>
       <r>   -12.4317     0.0000     7.3333 </r>
       <r>   -12.4208     0.0000     7.3333 </r>
       <r>   -12.4100     0.0000     7.3333 </r>
       <r>   -12.3991     0.0000     7.3333 </r>
       <r>   -12.3883     0.0000     7.3333 </r>
       <r>   -12.3774     0.0000     7.3333 </r>
       <r>   -12.3666     0.0000     7.3333 </r>
       <r>   -12.3557     0.0000     7.3333 </r>
       <r>   -12.3449     0.0000     7.3333 </r>
       <r>   -12.3341     0.0000     7.3333 </r>
       <r>   -12.3232     0.0000     7.3333 </r>
       <r>   -12.3124     0.0144     7.3335 </r>
       <r>   -12.3015     0.9807     7.3441 </r>
       <r>   -12.2907     8.2300     7.4334 </r>
       <r>   -12.2798     9.6362     7.5379 </r>
       <r>   -12.2690     1.5945     7.5552 </r>
       <r>   -12.2581     0.0333     7.5556 </r>
       <r>   -12.2473     0.0001     7.5556 </r>
       <r>   -12.2364     0.0000     7.5556 </r>
       <r>   -12.2256     0.0000     7.5556 </r>
       <r>   -12.2147     0.0000     7.5556 </r>
       <r>   -12.2039     0.0000     7.5556 </r>
       <r>   -12.1931     0.0000     7.5556 </r>
       <r>   -12.1822     0.0005     7.5556 </r>
       <r>   -12.1714     0.1160     7.5568 </r>
       <r>   -12.1605     3.1473     7.5910 </r>
       <r>   -12.1497    11.1643     7.7120 </r>
       <r>   -12.1388     5.6675     7.7735 </r>
       <r>   -12.1280     0.3905     7.7777 </r>
       <r>   -12.1171     0.0057     7.7778 </r>
       <r>   -12.1063     0.2547     7.7806 </r>
       <r>   -12.0954     3.1812     7.8151 </r>
       <r>   -12.0846     5.4373     7.8740 </r>
       <r>   -12.0738     1.3269     7.8884 </r>
       <r>   -12.0629     0.0419     7.8889 </r>
       <r>   -12.0521     0.0002     7.8889 </r>
       <r>   -12.0412     0.0000     7.8889 </r>
       <r>   -12.0304     0.0000     7.8889 </r>
       <r>   -12.0195     0.0000     7.8889 </r>
       <r>   -12.0087     0.0000     7.8889 </r>
       <r>   -11.9978     0.0000     7.8889 </r>
       <r>   -11.9870     0.0000     7.8889 </r>
       <r>   -11.9761     0.0000     7.8889 </r>
       <r>   -11.9653     0.0000     7.8889 </r>
       <r>   -11.9544     0.0000     7.8889 </r>
       <r>   -11.9436     0.0000     7.8889 </r>
       <r>   -11.9328     0.0000     7.8889 </r>
       <r>   -11.9219     0.0000     7.8889 </r>
       <r>   -11.9111     0.0000     7.8889 </r>
       <r>   -11.9002     0.0000     7.8889 </r>
       <r>   -11.8894     0.0000     7.8889 </r>
       <r>   -11.8785     0.0000     7.8889 </r>
       <r>   -11.8677     0.0000     7.8889 </r>
       <r>   -11.8568     0.0000     7.8889 </r>
       <r>   -11.8460     0.0000     7.8889 </r>
       <r>   -11.8351     0.0000     7.8889 </r>
       <r>   -11.8243     0.0000     7.8889 </r>
       <r>   -11.8135     0.0000     7.8889 </r>
       <r>   -11.8026     0.0024     7.8889 </r>
       <r>   -11.7918     0.2528     7.8917 </r>
       <r>   -11.7809     3.1712     7.9261 </r>
       <r>   -11.7701     5.4421     7.9851 </r>
       <r>   -11.7592     1.3336     7.9995 </r>
       <r>   -11.7484     0.0423     8.0000 </r>
       <r>   -11.7375     0.0002     8.0000 </r>
       <r>   -11.7267     0.0000     8.0000 </r>
       <r>   -11.7158     0.0000     8.0000 </r>
       <r>   -11.7050     0.0000     8.0000 </r>
       <r>   -11.6941     0.0000     8.0000 </r>
       <r>   -11.6833     0.0000     8.0000 </r>
       <r>   -11.6725     0.0000     8.0000 </r>
       <r>   -11.6616     0.0000     8.0000 </r>
       <r>   -11.6508     0.0000     8.0000 </r>
       <r>   -11.6399     0.0000     8.0000 </r>
       <r>   -11.6291     0.0000     8.0000 </r>
       <r>   -11.6182     0.0000     8.0000 </r>
       <r>   -11.6074     0.0000     8.0000 </r>
       <r>   -11.5965     0.0000     8.0000 </r>
       <r>   -11.5857     0.0000     8.0000 </r>
       <r>   -11.5748     0.0000     8.0000 </r>
       <r>   -11.5640     0.0000     8.0000 </r>
       <r>   -11.5532     0.0000     8.0000 </r>
       <r>   -11.5423     0.0000     8.0000 </r>
       <r>   -11.5315     0.0000     8.0000 </r>
       <r>   -11.5206     0.0000     8.0000 </r>
       <r>   -11.5098     0.0000     8.0000 </r>
       <r>   -11.4989     0.0000     8.0000 </r>
       <r>   -11.4881     0.0000     8.0000 </r>
       <r>   -11.4772     0.0000     8.0000 </r>
       <r>   -11.4664     0.0000     8.0000 </r>
       <r>   -11.4555     0.0000     8.0000 </r>
       <r>   -11.4447     0.0000     8.0000 </r>
       <r>   -11.4338     0.0000     8.0000 </r>
       <r>   -11.4230     0.0000     8.0000 </r>
       <r>   -11.4122     0.0000     8.0000 </r>
       <r>   -11.4013     0.0000     8.0000 </r>
       <r>   -11.3905     0.0000     8.0000 </r>
       <r>   -11.3796     0.0147     8.0002 </r>
       <r>   -11.3688     0.7443     8.0082 </r>
       <r>   -11.3579     4.7220     8.0594 </r>
       <r>   -11.3471     4.2264     8.1053 </r>
       <r>   -11.3362     0.5289     8.1110 </r>
       <r>   -11.3254     0.0082     8.1111 </r>
       <r>   -11.3145     0.0000     8.1111 </r>
       <r>   -11.3037     0.0000     8.1111 </r>
       <r>   -11.2929     0.0000     8.1111 </r>
       <r>   -11.2820     0.0000     8.1111 </r>
       <r>   -11.2712     0.0000     8.1111 </r>
       <r>   -11.2603     0.0006     8.1111 </r>
       <r>   -11.2495     0.0984     8.1122 </r>
       <r>   -11.2386     2.0552     8.1345 </r>
       <r>   -11.2278     5.7014     8.1963 </r>
       <r>   -11.2169     2.2677     8.2209 </r>
       <r>   -11.2061     0.1206     8.2222 </r>
       <r>   -11.1952     0.0008     8.2222 </r>
       <r>   -11.1844     0.0000     8.2222 </r>
       <r>   -11.1735     0.0000     8.2222 </r>
       <r>   -11.1627     0.0000     8.2222 </r>
       <r>   -11.1519     0.0000     8.2222 </r>
       <r>   -11.1410     0.0000     8.2222 </r>
       <r>   -11.1302     0.0000     8.2222 </r>
       <r>   -11.1193     0.0000     8.2222 </r>
       <r>   -11.1085     0.0000     8.2222 </r>
       <r>   -11.0976     0.0000     8.2222 </r>
       <r>   -11.0868     0.0000     8.2222 </r>
       <r>   -11.0759     0.0000     8.2222 </r>
       <r>   -11.0651     0.0000     8.2222 </r>
       <r>   -11.0542     0.0000     8.2222 </r>
       <r>   -11.0434     0.0000     8.2222 </r>
       <r>   -11.0326     0.0105     8.2223 </r>
       <r>   -11.0217     0.8102     8.2311 </r>
       <r>   -11.0109     7.6702     8.3143 </r>
       <r>   -11.0000    10.0830     8.4237 </r>
       <r>   -10.9892     2.5077     8.4509 </r>
       <r>   -10.9783     6.9934     8.5267 </r>
       <r>   -10.9675    10.5561     8.6412 </r>
       <r>   -10.9566     2.2837     8.6660 </r>
       <r>   -10.9458     0.0634     8.6667 </r>
       <r>   -10.9349     0.0002     8.6667 </r>
       <r>   -10.9241     0.0000     8.6667 </r>
       <r>   -10.9132     0.0000     8.6667 </r>
       <r>   -10.9024     0.0000     8.6667 </r>
       <r>   -10.8916     0.0000     8.6667 </r>
       <r>   -10.8807     0.0000     8.6667 </r>
       <r>   -10.8699     0.0000     8.6667 </r>
       <r>   -10.8590     0.0000     8.6667 </r>
       <r>   -10.8482     0.0000     8.6667 </r>
       <r>   -10.8373     0.0000     8.6667 </r>
       <r>   -10.8265     0.0000     8.6667 </r>
       <r>   -10.8156     0.0000     8.6667 </r>
       <r>   -10.8048     0.0000     8.6667 </r>
       <r>   -10.7939     0.0000     8.6667 </r>
       <r>   -10.7831     0.0000     8.6667 </r>
       <r>   -10.7723     0.0000     8.6667 </r>
       <r>   -10.7614     0.0000     8.6667 </r>
       <r>   -10.7506     0.0000     8.6667 </r>
       <r>   -10.7397     0.0000     8.6667 </r>
       <r>   -10.7289     0.0000     8.6667 </r>
       <r>   -10.7180     0.0000     8.6667 </r>
       <r>   -10.7072     0.0000     8.6667 </r>
       <r>   -10.6963     0.0000     8.6667 </r>
       <r>   -10.6855     0.0007     8.6667 </r>
       <r>   -10.6746     0.1098     8.6679 </r>
       <r>   -10.6638     2.1675     8.6914 </r>
       <r>   -10.6529     5.7049     8.7532 </r>
       <r>   -10.6421     2.1529     8.7766 </r>
       <r>   -10.6313     0.1082     8.7778 </r>
       <r>   -10.6204     0.0006     8.7778 </r>
       <r>   -10.6096     0.0003     8.7778 </r>
       <r>   -10.5987     0.0809     8.7787 </r>
       <r>   -10.5879     2.6041     8.8069 </r>
       <r>   -10.5770    10.8376     8.9244 </r>
       <r>   -10.5662     6.4918     8.9949 </r>
       <r>   -10.5553     2.0419     9.0170 </r>
       <r>   -10.5445     5.5605     9.0773 </r>
       <r>   -10.5336     2.9080     9.1088 </r>
       <r>   -10.5228     0.2072     9.1111 </r>
       <r>   -10.5120     0.0657     9.1118 </r>
       <r>   -10.5011     2.2949     9.1367 </r>
       <r>   -10.4903    10.8896     9.2548 </r>
       <r>   -10.4794    13.3829     9.4000 </r>
       <r>   -10.4686    17.7349     9.5923 </r>
       <r>   -10.4577     6.5232     9.6631 </r>
       <r>   -10.4469     0.3314     9.6666 </r>
       <r>   -10.4360     0.0038     9.6667 </r>
       <r>   -10.4252     0.2682     9.6696 </r>
       <r>   -10.4143     4.7707     9.7213 </r>
       <r>   -10.4035    11.3800     9.8448 </r>
       <r>   -10.3926     3.8913     9.8870 </r>
       <r>   -10.3818     0.1761     9.8889 </r>
       <r>   -10.3710     0.0009     9.8889 </r>
       <r>   -10.3601     0.0016     9.8889 </r>
       <r>   -10.3493     0.2539     9.8917 </r>
       <r>   -10.3384     4.6486     9.9421 </r>
       <r>   -10.3276    11.3938    10.0657 </r>
       <r>   -10.3167     4.0037    10.1091 </r>
       <r>   -10.3059     0.1866    10.1111 </r>
       <r>   -10.2950     0.0010    10.1111 </r>
       <r>   -10.2842     0.0000    10.1111 </r>
       <r>   -10.2733     0.0000    10.1111 </r>
       <r>   -10.2625     0.0000    10.1111 </r>
       <r>   -10.2517     0.0000    10.1111 </r>
       <r>   -10.2408     0.0033    10.1111 </r>
       <r>   -10.2300     0.3963    10.1154 </r>
       <r>   -10.2191     5.7050    10.1773 </r>
       <r>   -10.2083    11.1512    10.2983 </r>
       <r>   -10.1974     3.1190    10.3321 </r>
       <r>   -10.1866     0.1140    10.3333 </r>
       <r>   -10.1757     0.0020    10.3334 </r>
       <r>   -10.1649     0.1916    10.3354 </r>
       <r>   -10.1540     2.8100    10.3659 </r>
       <r>   -10.1432     5.5902    10.4265 </r>
       <r>   -10.1323     1.5918    10.4438 </r>
       <r>   -10.1215     0.0593    10.4444 </r>
       <r>   -10.1107     0.0033    10.4445 </r>
       <r>   -10.0998     0.2896    10.4476 </r>
       <r>   -10.0890     3.3568    10.4840 </r>
       <r>   -10.0781     5.3458    10.5420 </r>
       <r>   -10.0673     1.2253    10.5553 </r>
       <r>   -10.0564     0.8977    10.5650 </r>
       <r>   -10.0456     8.1446    10.6534 </r>
       <r>   -10.0347    16.3834    10.8311 </r>
       <r>   -10.0239    23.5930    11.0869 </r>
       <r>   -10.0130    18.2202    11.2846 </r>
       <r>   -10.0022     4.3125    11.3313 </r>
       <r>    -9.9914     0.1839    11.3333 </r>
       <r>    -9.9805     0.0010    11.3333 </r>
       <r>    -9.9697     0.0000    11.3333 </r>
       <r>    -9.9588     0.0000    11.3333 </r>
       <r>    -9.9480     0.0000    11.3333 </r>
       <r>    -9.9371     0.0011    11.3333 </r>
       <r>    -9.9263     0.1598    11.3351 </r>
       <r>    -9.9154     2.8571    11.3661 </r>
       <r>    -9.9046     9.0256    11.4640 </r>
       <r>    -9.8937     7.1282    11.5413 </r>
       <r>    -9.8829     1.2818    11.5552 </r>
       <r>    -9.8721     0.0626    11.5558 </r>
       <r>    -9.8612     1.0482    11.5672 </r>
       <r>    -9.8504     5.1768    11.6234 </r>
       <r>    -9.8395     3.6355    11.6628 </r>
       <r>    -9.8287     0.3528    11.6666 </r>
       <r>    -9.8178     0.0042    11.6667 </r>
       <r>    -9.8070     0.0000    11.6667 </r>
       <r>    -9.7961     0.0105    11.6668 </r>
       <r>    -9.7853     0.6197    11.6735 </r>
       <r>    -9.7744     5.1807    11.7297 </r>
       <r>    -9.7636    12.6869    11.8673 </r>
       <r>    -9.7527    18.4850    12.0678 </r>
       <r>    -9.7419    12.2033    12.2001 </r>
       <r>    -9.7311     2.0039    12.2219 </r>
       <r>    -9.7202     0.5879    12.2282 </r>
       <r>    -9.7094     2.6073    12.2565 </r>
       <r>    -9.6985     1.7887    12.2759 </r>
       <r>    -9.6877     0.1694    12.2778 </r>
       <r>    -9.6768     0.0019    12.2778 </r>
       <r>    -9.6660     0.0000    12.2778 </r>
       <r>    -9.6551     0.0000    12.2778 </r>
       <r>    -9.6443     0.0004    12.2778 </r>
       <r>    -9.6334     0.0746    12.2786 </r>
       <r>    -9.6226     1.7905    12.2980 </r>
       <r>    -9.6118     5.6802    12.3596 </r>
       <r>    -9.6009     3.2306    12.3947 </r>
       <r>    -9.5901     2.8783    12.4259 </r>
       <r>    -9.5792     1.5852    12.4431 </r>
       <r>    -9.5684     0.1651    12.4449 </r>
       <r>    -9.5575     1.7467    12.4638 </r>
       <r>    -9.5467     9.8833    12.5710 </r>
       <r>    -9.5358     7.9251    12.6569 </r>
       <r>    -9.5250     0.8841    12.6665 </r>
       <r>    -9.5141     0.0124    12.6667 </r>
       <r>    -9.5033     0.0721    12.6675 </r>
       <r>    -9.4924     2.4478    12.6940 </r>
       <r>    -9.4816    10.7095    12.8102 </r>
       <r>    -9.4708     6.6812    12.8826 </r>
       <r>    -9.4599     0.5724    12.8888 </r>
       <r>    -9.4491     0.0059    12.8889 </r>
       <r>    -9.4382     0.0000    12.8889 </r>
       <r>    -9.4274     0.0000    12.8889 </r>
       <r>    -9.4165     0.0000    12.8889 </r>
       <r>    -9.4057     0.0000    12.8889 </r>
       <r>    -9.3948     0.0000    12.8889 </r>
       <r>    -9.3840     0.0000    12.8889 </r>
       <r>    -9.3731     0.0000    12.8889 </r>
       <r>    -9.3623     0.0000    12.8889 </r>
       <r>    -9.3515     0.0000    12.8889 </r>
       <r>    -9.3406     0.0000    12.8889 </r>
       <r>    -9.3298     0.0000    12.8889 </r>
[...]
        <r>  0.0657  0.0038  0.0001  0.0039  0.0000  0.0000  0.0000  0.0000  0.0000 </r>
        <r>  0.0639  0.0037  0.0001  0.0040  0.0000  0.0000  0.0000  0.0000  0.0000 </r>
        <r>  0.0657  0.0038  0.0001  0.0039  0.0000  0.0000  0.0000  0.0000  0.0000 </r>
        <r>  0.0639  0.0037  0.0001  0.0040  0.0000  0.0000  0.0000  0.0000  0.0000 </r>
        <r>  0.0660  0.0034  0.0001  0.0036  0.0000  0.0000  0.0000  0.0000  0.0000 </r>
        <r>  0.0642  0.0033  0.0001  0.0037  0.0000  0.0000  0.0000  0.0000  0.0000 </r>
       </set>
       <set comment="band 5">
        <r>  0.0134  0.0000  0.0013  0.0255  0.0000  0.0000  0.0000  0.0000  0.0000 </r>
        <r>  0.0984  0.0003  0.0096  0.0035  0.0000  0.0000  0.0000  0.0000  0.0000 </r>
        <r>  0.0102  0.0003  0.0012  0.0218  0.0000  0.0000  0.0000  0.0000  0.0000 </r>
        <r>  0.0752  0.0019  0.0090  0.0030  0.0000  0.0000  0.0000  0.0000  0.0000 </r>
        <r>  0.0102  0.0003  0.0012  0.0218  0.0000  0.0000  0.0000  0.0000  0.0000 </r>
        <r>  0.0752  0.0019  0.0090  0.0030  0.0000  0.0000  0.0000  0.0000  0.0000 </r>
        <r>  0.0134  0.0000  0.0013  0.0255  0.0000  0.0000  0.0000  0.0000  0.0000 </r>
        <r>  0.0984  0.0003  0.0096  0.0035  0.0000  0.0000  0.0000  0.0000  0.0000 </r>
       </set>
       <set comment="band 6">
        <r>  0.0984  0.0003  0.0096  0.0035  0.0000  0.0000  0.0000  0.0000  0.0000 </r>
        <r>  0.0134  0.0000  0.0013  0.0255  0.0000  0.0000  0.0000  0.0000  0.0000 </r>
        <r>  0.0752  0.0019  0.0090  0.0030  0.0000  0.0000  0.0000  0.0000  0.0000 </r>
        <r>  0.0102  0.0003  0.0012  0.0218  0.0000  0.0000  0.0000  0.0000  0.0000 </r>
        <r>  0.0752  0.0019  0.0090  0.0030  0.0000  0.0000  0.0000  0.0000  0.0000 </r>
        <r>  0.0102  0.0003  0.0012  0.0218  0.0000  0.0000  0.0000  0.0000  0.0000 </r>
        <r>  0.0984  0.0003  0.0096  0.0035  0.0000  0.0000  0.0000  0.0000  0.0000 </r>
        <r>  0.0134  0.0000  0.0013  0.0255  0.0000  0.0000  0.0000  0.0000  0.0000 </r>
       </set>
       <set comment="band 7">
        <r>  0.0400  0.0003  0.0050  0.0163  0.0000  0.0000  0.0000  0.0000  0.0000 </r>
        <r>  0.0539  0.0004  0.0068  0.0121  0.0000  0.0000  0.0000  0.0000  0.0000 </r>
        <r>  0.0389  0.0002  0.0059  0.0180  0.0000  0.0000  0.0000  0.0000  0.0000 </r>
        <r>  0.0523  0.0002  0.0080  0.0134  0.0000  0.0000  0.0000  0.0000  0.0000 </r>
        <r>  0.0389  0.0002  0.0059  0.0180  0.0000  0.0000  0.0000  0.0000  0.0000 </r>
        <r>  0.0523  0.0002  0.0080  0.0134  0.0000  0.0000  0.0000  0.0000  0.0000 </r>
        <r>  0.0400  0.0003  0.0050  0.0163  0.0000  0.0000  0.0000  0.0000  0.0000 </r>
        <r>  0.0539  0.0004  0.0068  0.0121  0.0000  0.0000  0.0000  0.0000  0.0000 </r>
       </set>
       <set comment="band 8">
        <r>  0.0539  0.0004  0.0068  0.0121  0.0000  0.0000  0.0000  0.0000  0.0000 </r>
        <r>  0.0400  0.0003  0.0050  0.0163  0.0000  0.0000  0.0000  0.0000  0.0000 </r>
        <r>  0.0523  0.0002  0.0080  0.0134  0.0000  0.0000  0.0000  0.0000  0.0000 </r>
        <r>  0.0389  0.0002  0.0059  0.0180  0.0000  0.0000  0.0000  0.0000  0.0000 </r>
        <r>  0.0523  0.0002  0.0080  0.0134  0.0000  0.0000  0.0000  0.0000  0.0000 </r>
        <r>  0.0389  0.0002  0.0059  0.0180  0.0000  0.0000  0.0000  0.0000  0.0000 </r>
        <r>  0.0539  0.0004  0.0068  0.0121  0.0000  0.0000  0.0000  0.0000  0.0000 </r>
        <r>  0.0400  0.0003  0.0050  0.0163  0.0000  0.0000  0.0000  0.0000  0.0000 </r>
       </set>
       <set comment="band 9">
        <r>  0.0009  0.0000  0.0012  0.0317  0.0000  0.0000  0.0000  0.0000  0.0000 </r>
        <r>  0.0309  0.0001  0.0442  0.0009  0.0000  0.0000  0.0000  0.0000  0.0000 </r>
        <r>  0.0008  0.0010  0.0003  0.0079  0.0000  0.0000  0.0000  0.0000  0.0000 </r>
        <r>  0.0291  0.0361  0.0122  0.0002  0.0000  0.0000  0.0000  0.0000  0.0000 </r>
        <r>  0.0008  0.0010  0.0003  0.0079  0.0000  0.0000  0.0000  0.0000  0.0000 </r>
        <r>  0.0291  0.0361  0.0122  0.0002  0.0000  0.0000  0.0000  0.0000  0.0000 </r>
        <r>  0.0009  0.0000  0.0012  0.0317  0.0000  0.0000  0.0000  0.0000  0.0000 </r>
        <r>  0.0309  0.0001  0.0442  0.0009  0.0000  0.0000  0.0000  0.0000  0.0000 </r>
       </set>
       <set comment="band 10">
        <r>  0.0309  0.0001  0.0442  0.0009  0.0000  0.0000  0.0000  0.0000  0.0000 </r>
        <r>  0.0009  0.0000  0.0012  0.0317  0.0000  0.0000  0.0000  0.0000  0.0000 </r>
        <r>  0.0291  0.0361  0.0122  0.0002  0.0000  0.0000  0.0000  0.0000  0.0000 </r>
        <r>  0.0008  0.0010  0.0003  0.0079  0.0000  0.0000  0.0000  0.0000  0.0000 </r>
        <r>  0.0291  0.0361  0.0122  0.0002  0.0000  0.0000  0.0000  0.0000  0.0000 </r>
        <r>  0.0008  0.0010  0.0003  0.0079  0.0000  0.0000  0.0000  0.0000  0.0000 </r>
        <r>  0.0309  0.0001  0.0442  0.0009  0.0000  0.0000  0.0000  0.0000  0.0000 </r>
        <r>  0.0009  0.0000  0.0012  0.0317  0.0000  0.0000  0.0000  0.0000  0.0000 </r>
       </set>
       <set comment="band 11">
        <r>  0.0028  0.0180  0.0098  0.0087  0.0000  0.0000  0.0000  0.0000  0.0000 </r>
        <r>  0.0025  0.0160  0.0087  0.0098  0.0000  0.0000  0.0000  0.0000  0.0000 </r>
        <r>  0.0054  0.0084  0.0330  0.0233  0.0000  0.0000  0.0000  0.0000  0.0000 </r>
        <r>  0.0047  0.0075  0.0292  0.0263  0.0000  0.0000  0.0000  0.0000  0.0000 </r>
        <r>  0.0054  0.0084  0.0330  0.0233  0.0000  0.0000  0.0000  0.0000  0.0000 </r>
        <r>  0.0047  0.0075  0.0292  0.0263  0.0000  0.0000  0.0000  0.0000  0.0000 </r>
        <r>  0.0028  0.0180  0.0098  0.0087  0.0000  0.0000  0.0000  0.0000  0.0000 </r>
        <r>  0.0025  0.0160  0.0087  0.0098  0.0000  0.0000  0.0000  0.0000  0.0000 </r>
       </set>
       <set comment="band 12">
        <r>  0.0025  0.0160  0.0087  0.0098  0.0000  0.0000  0.0000  0.0000  0.0000 </r>
        <r>  0.0028  0.0180  0.0098  0.0087  0.0000  0.0000  0.0000  0.0000  0.0000 </r>
        <r>  0.0047  0.0075  0.0292  0.0263  0.0000  0.0000  0.0000  0.0000  0.0000 </r>
        <r>  0.0054  0.0084  0.0330  0.0233  0.0000  0.0000  0.0000  0.0000  0.0000 </r>
        <r>  0.0047  0.0075  0.0292  0.0263  0.0000  0.0000  0.0000  0.0000  0.0000 </r>
        <r>  0.0054  0.0084  0.0330  0.0233  0.0000  0.0000  0.0000  0.0000  0.0000 </r>
        <r>  0.0025  0.0160  0.0087  0.0098  0.0000  0.0000  0.0000  0.0000  0.0000 </r>
        <r>  0.0028  0.0180  0.0098  0.0087  0.0000  0.0000  0.0000  0.0000  0.0000 </r>
       </set>
       <set comment="band 13">
        <r>  0.0026  0.0325  0.0179  0.0031  0.0000  0.0000  0.0000  0.0000  0.0000 </r>
        <r>  0.0005  0.0060  0.0033  0.0169  0.0000  0.0000  0.0000  0.0000  0.0000 </r>
        <r>  0.0044  0.0138  0.0556  0.0084  0.0000  0.0000  0.0000  0.0000  0.0000 </r>
        <r>  0.0008  0.0026  0.0103  0.0454  0.0000  0.0000  0.0000  0.0000  0.0000 </r>
        <r>  0.0044  0.0138  0.0556  0.0084  0.0000  0.0000  0.0000  0.0000  0.0000 </r>
        <r>  0.0008  0.0026  0.0103  0.0454  0.0000  0.0000  0.0000  0.0000  0.0000 </r>
        <r>  0.0026  0.0325  0.0179  0.0031  0.0000  0.0000  0.0000  0.0000  0.0000 </r>
        <r>  0.0005  0.0060  0.0033  0.0169  0.0000  0.0000  0.0000  0.0000  0.0000 </r>
       </set>
       <set comment="band 14">
        <r>  0.0005  0.0060  0.0033  0.0169  0.0000  0.0000  0.0000  0.0000  0.0000 </r>
        <r>  0.0026  0.0325  0.0179  0.0031  0.0000  0.0000  0.0000  0.0000  0.0000 </r>
        <r>  0.0008  0.0026  0.0103  0.0454  0.0000  0.0000  0.0000  0.0000  0.0000 </r>
        <r>  0.0044  0.0138  0.0556  0.0084  0.0000  0.0000  0.0000  0.0000  0.0000 </r>
        <r>  0.0008  0.0026  0.0103  0.0454  0.0000  0.0000  0.0000  0.0000  0.0000 </r>
        <r>  0.0044  0.0138  0.0556  0.0084  0.0000  0.0000  0.0000  0.0000  0.0000 </r>
        <r>  0.0005  0.0060  0.0033  0.0169  0.0000  0.0000  0.0000  0.0000  0.0000 </r>
        <r>  0.0026  0.0325  0.0179  0.0031  0.0000  0.0000  0.0000  0.0000  0.0000 </r>
       </set>
       <set comment="band 15">
        <r>  0.0272  0.0014  0.0331  0.0173  0.0000  0.0000  0.0000  0.0000  0.0000 </r>
        <r>  0.0201  0.0010  0.0245  0.0234  0.0000  0.0000  0.0000  0.0000  0.0000 </r>
        <r>  0.0248  0.0088  0.0033  0.0010  0.0000  0.0000  0.0000  0.0000  0.0000 </r>
        <r>  0.0183  0.0065  0.0025  0.0013  0.0000  0.0000  0.0000  0.0000  0.0000 </r>
        <r>  0.0248  0.0088  0.0033  0.0010  0.0000  0.0000  0.0000  0.0000  0.0000 </r>
        <r>  0.0183  0.0065  0.0025  0.0013  0.0000  0.0000  0.0000  0.0000  0.0000 </r>
        <r>  0.0272  0.0014  0.0331  0.0173  0.0000  0.0000  0.0000  0.0000  0.0000 </r>
        <r>  0.0201  0.0010  0.0245  0.0234  0.0000  0.0000  0.0000  0.0000  0.0000 </r>
       </set>
       <set comment="band 16">
        <r>  0.0201  0.0010  0.0245  0.0234  0.0000  0.0000  0.0000  0.0000  0.0000 </r>
        <r>  0.0272  0.0014  0.0331  0.0173  0.0000  0.0000  0.0000  0.0000  0.0000 </r>
        <r>  0.0183  0.0065  0.0025  0.0013  0.0000  0.0000  0.0000  0.0000  0.0000 </r>
        <r>  0.0248  0.0088  0.0033  0.0010  0.0000  0.0000  0.0000  0.0000  0.0000 </r>
        <r>  0.0183  0.0065  0.0025  0.0013  0.0000  0.0000  0.0000  0.0000  0.0000 </r>
        <r>  0.0248  0.0088  0.0033  0.0010  0.0000  0.0000  0.0000  0.0000  0.0000 </r>
        <r>  0.0201  0.0010  0.0245  0.0234  0.0000  0.0000  0.0000  0.0000  0.0000 </r>
        <r>  0.0272  0.0014  0.0331  0.0173  0.0000  0.0000  0.0000  0.0000  0.0000 </r>
       </set>
       <set comment="band 17">
        <r>  0.0098  0.0299  0.0091  0.0089  0.0000  0.0000  0.0000  0.0000  0.0000 </r>
        <r>  0.0121  0.0368  0.0112  0.0072  0.0000  0.0000  0.0000  0.0000  0.0000 </r>
        <r>  0.0005  0.0342  0.0039  0.0048  0.0000  0.0000  0.0000  0.0000  0.0000 </r>
        <r>  0.0006  0.0422  0.0048  0.0039  0.0000  0.0000  0.0000  0.0000  0.0000 </r>
        <r>  0.0005  0.0342  0.0039  0.0048  0.0000  0.0000  0.0000  0.0000  0.0000 </r>
        <r>  0.0006  0.0422  0.0048  0.0039  0.0000  0.0000  0.0000  0.0000  0.0000 </r>
        <r>  0.0098  0.0299  0.0091  0.0089  0.0000  0.0000  0.0000  0.0000  0.0000 </r>
        <r>  0.0121  0.0368  0.0112  0.0072  0.0000  0.0000  0.0000  0.0000  0.0000 </r>
       </set>
       <set comment="band 18">
        <r>  0.0121  0.0368  0.0112  0.0072  0.0000  0.0000  0.0000  0.0000  0.0000 </r>
        <r>  0.0098  0.0299  0.0091  0.0089  0.0000  0.0000  0.0000  0.0000  0.0000 </r>
        <r>  0.0006  0.0422  0.0048  0.0039  0.0000  0.0000  0.0000  0.0000  0.0000 </r>
        <r>  0.0005  0.0342  0.0039  0.0048  0.0000  0.0000  0.0000  0.0000  0.0000 </r>
        <r>  0.0006  0.0422  0.0048  0.0039  0.0000  0.0000  0.0000  0.0000  0.0000 </r>
        <r>  0.0005  0.0342  0.0039  0.0048  0.0000  0.0000  0.0000  0.0000  0.0000 </r>
        <r>  0.0121  0.0368  0.0112  0.0072  0.0000  0.0000  0.0000  0.0000  0.0000 </r>
        <r>  0.0098  0.0299  0.0091  0.0089  0.0000  0.0000  0.0000  0.0000  0.0000 </r>
       </set>
       <set comment="band 19">
        <r>  0.0048  0.0956  0.0064  0.0006  0.0000  0.0000  0.0000  0.0000  0.0000 </r>
        <r>  0.0004  0.0085  0.0006  0.0063  0.0000  0.0000  0.0000  0.0000  0.0000 </r>
        <r>  0.0250  0.0679  0.0118  0.0008  0.0000  0.0000  0.0000  0.0000  0.0000 </r>
        <r>  0.0022  0.0060  0.0010  0.0093  0.0000  0.0000  0.0000  0.0000  0.0000 </r>
        <r>  0.0250  0.0679  0.0118  0.0008  0.0000  0.0000  0.0000  0.0000  0.0000 </r>
        <r>  0.0022  0.0060  0.0010  0.0093  0.0000  0.0000  0.0000  0.0000  0.0000 </r>
        <r>  0.0048  0.0956  0.0064  0.0006  0.0000  0.0000  0.0000  0.0000  0.0000 </r>
        <r>  0.0004  0.0085  0.0006  0.0063  0.0000  0.0000  0.0000  0.0000  0.0000 </r>
       </set>
       <set comment="band 20">
        <r>  0.0004  0.0085  0.0006  0.0063  0.0000  0.0000  0.0000  0.0000  0.0000 </r>
        <r>  0.0048  0.0956  0.0064  0.0006  0.0000  0.0000  0.0000  0.0000  0.0000 </r>
        <r>  0.0022  0.0060  0.0010  0.0093  0.0000  0.0000  0.0000  0.0000  0.0000 </r>
        <r>  0.0250  0.0679  0.0118  0.0008  0.0000  0.0000  0.0000  0.0000  0.0000 </r>
        <r>  0.0022  0.0060  0.0010  0.0093  0.0000  0.0000  0.0000  0.0000  0.0000 </r>
        <r>  0.0250  0.0679  0.0118  0.0008  0.0000  0.0000  0.0000  0.0000  0.0000 </r>
        <r>  0.0004  0.0085  0.0006  0.0063  0.0000  0.0000  0.0000  0.0000  0.0000 </r>
        <r>  0.0048  0.0956  0.0064  0.0006  0.0000  0.0000  0.0000  0.0000  0.0000 </r>
       </set>
       <set comment="band 21">
        <r>  0.0016  0.0044  0.0010  0.0042  0.0000  0.0000  0.0000  0.0000  0.0000 </r>
        <r>  0.0087  0.0243  0.0057  0.0008  0.0000  0.0000  0.0000  0.0000  0.0000 </r>
        <r>  0.0006  0.0082  0.0000  0.0002  0.0000  0.0000  0.0000  0.0000  0.0000 </r>
        <r>  0.0031  0.0455  0.0000  0.0000  0.0000  0.0000  0.0000  0.0000  0.0000 </r>
        <r>  0.0006  0.0082  0.0000  0.0002  0.0000  0.0000  0.0000  0.0000  0.0000 </r>
        <r>  0.0031  0.0455  0.0000  0.0000  0.0000  0.0000  0.0000  0.0000  0.0000 </r>
        <r>  0.0016  0.0044  0.0010  0.0042  0.0000  0.0000  0.0000  0.0000  0.0000 </r>
        <r>  0.0087  0.0243  0.0057  0.0008  0.0000  0.0000  0.0000  0.0000  0.0000 </r>
       </set>
       <set comment="band 22">
        <r>  0.0087  0.0243  0.0057  0.0008  0.0000  0.0000  0.0000  0.0000  0.0000 </r>
        <r>  0.0016  0.0044  0.0010  0.0042  0.0000  0.0000  0.0000  0.0000  0.0000 </r>
        <r>  0.0031  0.0455  0.0000  0.0000  0.0000  0.0000  0.0000  0.0000  0.0000 </r>
        <r>  0.0006  0.0082  0.0000  0.0002  0.0000  0.0000  0.0000  0.0000  0.0000 </r>
        <r>  0.0031  0.0455  0.0000  0.0000  0.0000  0.0000  0.0000  0.0000  0.0000 </r>
        <r>  0.0006  0.0082  0.0000  0.0002  0.0000  0.0000  0.0000  0.0000  0.0000 </r>
        <r>  0.0087  0.0243  0.0057  0.0008  0.0000  0.0000  0.0000  0.0000  0.0000 </r>
        <r>  0.0016  0.0044  0.0010  0.0042  0.0000  0.0000  0.0000  0.0000  0.0000 </r>
       </set>
       <set comment="band 23">
        <r>  0.0058  0.0316  0.0004  0.0012  0.0000  0.0000  0.0000  0.0000  0.0000 </r>
        <r>  0.0080  0.0438  0.0005  0.0008  0.0000  0.0000  0.0000  0.0000  0.0000 </r>
        <r>  0.0092  0.0213  0.0034  0.0042  0.0000  0.0000  0.0000  0.0000  0.0000 </r>
        <r>  0.0128  0.0295  0.0047  0.0030  0.0000  0.0000  0.0000  0.0000  0.0000 </r>
        <r>  0.0092  0.0213  0.0034  0.0042  0.0000  0.0000  0.0000  0.0000  0.0000 </r>
        <r>  0.0128  0.0295  0.0047  0.0030  0.0000  0.0000  0.0000  0.0000  0.0000 </r>
        <r>  0.0058  0.0316  0.0004  0.0012  0.0000  0.0000  0.0000  0.0000  0.0000 </r>
        <r>  0.0080  0.0438  0.0005  0.0008  0.0000  0.0000  0.0000  0.0000  0.0000 </r>
       </set>
       <set comment="band 24">
        <r>  0.0080  0.0438  0.0005  0.0008  0.0000  0.0000  0.0000  0.0000  0.0000 </r>
        <r>  0.0058  0.0316  0.0004  0.0012  0.0000  0.0000  0.0000  0.0000  0.0000 </r>
        <r>  0.0128  0.0295  0.0047  0.0030  0.0000  0.0000  0.0000  0.0000  0.0000 </r>
        <r>  0.0092  0.0213  0.0034  0.0042  0.0000  0.0000  0.0000  0.0000  0.0000 </r>
        <r>  0.0128  0.0295  0.0047  0.0030  0.0000  0.0000  0.0000  0.0000  0.0000 </r>
        <r>  0.0092  0.0213  0.0034  0.0042  0.0000  0.0000  0.0000  0.0000  0.0000 </r>
        <r>  0.0080  0.0438  0.0005  0.0008  0.0000  0.0000  0.0000  0.0000  0.0000 </r>
        <r>  0.0058  0.0316  0.0004  0.0012  0.0000  0.0000  0.0000  0.0000  0.0000 </r>
       </set>
       <set comment="band 25">
        <r>  0.0017  0.0008  0.0326  0.0163  0.0000  0.0000  0.0000  0.0000  0.0000 </r>
        <r>  0.0017  0.0009  0.0332  0.0160  0.0000  0.0000  0.0000  0.0000  0.0000 </r>
        <r>  0.0017  0.0012  0.0408  0.0202  0.0000  0.0000  0.0000  0.0000  0.0000 </r>
        <r>  0.0017  0.0012  0.0416  0.0198  0.0000  0.0000  0.0000  0.0000  0.0000 </r>
        <r>  0.0017  0.0012  0.0408  0.0202  0.0000  0.0000  0.0000  0.0000  0.0000 </r>
        <r>  0.0017  0.0012  0.0416  0.0198  0.0000  0.0000  0.0000  0.0000  0.0000 </r>
        <r>  0.0017  0.0008  0.0326  0.0163  0.0000  0.0000  0.0000  0.0000  0.0000 </r>
        <r>  0.0017  0.0009  0.0332  0.0160  0.0000  0.0000  0.0000  0.0000  0.0000 </r>
       </set>
       <set comment="band 26">
        <r>  0.0017  0.0009  0.0333  0.0160  0.0000  0.0000  0.0000  0.0000  0.0000 </r>
        <r>  0.0017  0.0008  0.0326  0.0163  0.0000  0.0000  0.0000  0.0000  0.0000 </r>
        <r>  0.0017  0.0012  0.0416  0.0198  0.0000  0.0000  0.0000  0.0000  0.0000 </r>
        <r>  0.0017  0.0012  0.0408  0.0202  0.0000  0.0000  0.0000  0.0000  0.0000 </r>
        <r>  0.0017  0.0012  0.0416  0.0198  0.0000  0.0000  0.0000  0.0000  0.0000 </r>
        <r>  0.0017  0.0012  0.0408  0.0202  0.0000  0.0000  0.0000  0.0000  0.0000 </r>
        <r>  0.0017  0.0009  0.0333  0.0160  0.0000  0.0000  0.0000  0.0000  0.0000 </r>
        <r>  0.0017  0.0008  0.0326  0.0163  0.0000  0.0000  0.0000  0.0000  0.0000 </r>
       </set>
       <set comment="band 27">
        <r>  0.0023  0.0020  0.0538  0.0073  0.0000  0.0000  0.0000  0.0000  0.0000 </r>
        <r>  0.0007  0.0006  0.0167  0.0235  0.0000  0.0000  0.0000  0.0000  0.0000 </r>
        <r>  0.0027  0.0011  0.0601  0.0076  0.0000  0.0000  0.0000  0.0000  0.0000 </r>
        <r>  0.0009  0.0004  0.0187  0.0244  0.0000  0.0000  0.0000  0.0000  0.0000 </r>
        <r>  0.0027  0.0011  0.0601  0.0076  0.0000  0.0000  0.0000  0.0000  0.0000 </r>
        <r>  0.0009  0.0004  0.0187  0.0244  0.0000  0.0000  0.0000  0.0000  0.0000 </r>
        <r>  0.0023  0.0020  0.0539  0.0073  0.0000  0.0000  0.0000  0.0000  0.0000 </r>
        <r>  0.0007  0.0006  0.0167  0.0235  0.0000  0.0000  0.0000  0.0000  0.0000 </r>
       </set>
       <set comment="band 28">
        <r>  0.0007  0.0006  0.0168  0.0235  0.0000  0.0000  0.0000  0.0000  0.0000 </r>
        <r>  0.0023  0.0020  0.0538  0.0073  0.0000  0.0000  0.0000  0.0000  0.0000 </r>
        <r>  0.0009  0.0004  0.0187  0.0244  0.0000  0.0000  0.0000  0.0000  0.0000 </r>
        <r>  0.0027  0.0011  0.0601  0.0076  0.0000  0.0000  0.0000  0.0000  0.0000 </r>
        <r>  0.0009  0.0004  0.0187  0.0244  0.0000  0.0000  0.0000  0.0000  0.0000 </r>
        <r>  0.0027  0.0011  0.0601  0.0076  0.0000  0.0000  0.0000  0.0000  0.0000 </r>
        <r>  0.0007  0.0006  0.0167  0.0235  0.0000  0.0000  0.0000  0.0000  0.0000 </r>
        <r>  0.0023  0.0020  0.0539  0.0073  0.0000  0.0000  0.0000  0.0000  0.0000 </r>
       </set>
      </set>
     </set>
    </set>
   </array>
  </projected>
 </calculation>
 <structure name="finalpos" >
  <crystal>
   <varray name="basis" >
    <v>       3.34288600       0.00000000       0.00000000 </v>
    <v>       0.00000000      27.37286400       0.00000000 </v>
    <v>       0.00000000       0.00000000       4.37483100 </v>
   </varray>
   <i name="volume">    400.31612759 </i>
   <varray name="rec_basis" >
    <v>       0.29914272       0.00000000       0.00000000 </v>
    <v>       0.00000000       0.03653253       0.00000000 </v>
    <v>       0.00000000       0.00000000       0.22858026 </v>
   </varray>
  </crystal>
  <varray name="positions" >
   <v>       0.00000000       0.36532500       0.91892400 </v>
   <v>       0.50000000       0.36532500       0.58107600 </v>
   <v>       0.00000000       0.44362600       0.08107600 </v>
   <v>       0.50000000       0.44362600       0.41892400 </v>
   <v>       0.00000000       0.55637400       0.91892400 </v>
   <v>       0.50000000       0.55637400       0.58107600 </v>
   <v>       0.00000000       0.63467500       0.08107600 </v>
   <v>       0.50000000       0.63467500       0.41892400 </v>
  </varray>
 </structure>
</modeling>
