Generic Input                           
           1
     3.342886    0.000000    0.000000
     0.000000   27.372864    0.000000
     0.000000    0.000000    4.374831
   P 
   8
Direct configuration=     1
   0.00000000  0.36532500  0.91892400
   0.50000000  0.36532500  0.58107600
   0.00000000  0.44362600  0.08107600
   0.50000000  0.44362600  0.41892400
   0.00000000  0.55637400  0.91892400
   0.50000000  0.55637400  0.58107600
   0.00000000  0.63467500  0.08107600
   0.50000000  0.63467500  0.41892400
