  12  12   1   0
  0.3973299E+02  0.3342886E-09  0.3260241E-08  0.4374831E-09  0.5000000E-15
  1.000000000000000E-004
  CAR 
 Generic Input                           
      5.85316553    -15.84073238 2000      0.93928173      1.00000000
    -15.841  0.0000E+00  0.0000E+00
    -15.830  0.0000E+00  0.0000E+00
    -15.819  0.0000E+00  0.0000E+00
    -15.808  0.0000E+00  0.0000E+00
    -15.797  0.0000E+00  0.0000E+00
    -15.786  0.0000E+00  0.0000E+00
    -15.776  0.0000E+00  0.0000E+00
    -15.765  0.0000E+00  0.0000E+00
    -15.754  0.0000E+00  0.0000E+00
    -15.743  0.0000E+00  0.0000E+00
    -15.732  0.0000E+00  0.0000E+00
    -15.721  0.0000E+00  0.0000E+00
    -15.711  0.0000E+00  0.0000E+00
    -15.700  0.0000E+00  0.0000E+00
    -15.689  0.0000E+00  0.0000E+00
    -15.678  0.0000E+00  0.0000E+00
    -15.667  0.0000E+00  0.0000E+00
    -15.656  0.0000E+00  0.0000E+00
    -15.645  0.0000E+00  0.0000E+00
    -15.635  0.0000E+00  0.0000E+00
    -15.624  0.0000E+00  0.0000E+00
    -15.613  0.0000E+00  0.0000E+00
    -15.602  0.0000E+00  0.0000E+00
    -15.591  0.0000E+00  0.0000E+00
    -15.580  0.0000E+00  0.0000E+00
    -15.569  0.0000E+00  0.0000E+00
    -15.559  0.0000E+00  0.0000E+00
    -15.548  0.0000E+00  0.0000E+00
    -15.537  0.0000E+00  0.0000E+00
    -15.526  0.0000E+00  0.0000E+00
    -15.515  0.0000E+00  0.0000E+00
    -15.504  0.0000E+00  0.0000E+00
    -15.493  0.0000E+00  0.0000E+00
    -15.483  0.0000E+00  0.0000E+00
    -15.472  0.0000E+00  0.0000E+00
    -15.461  0.0000E+00  0.0000E+00
    -15.450  0.0000E+00  0.0000E+00
    -15.439  0.0000E+00  0.0000E+00
    -15.428  0.0000E+00  0.0000E+00
    -15.417  0.0000E+00  0.0000E+00
    -15.407  0.0000E+00  0.0000E+00
    -15.396  0.0000E+00  0.0000E+00
    -15.385  0.0000E+00  0.0000E+00
    -15.374  0.0000E+00  0.0000E+00
    -15.363  0.0000E+00  0.0000E+00
    -15.352  0.0000E+00  0.0000E+00
    -15.342  0.0000E+00  0.0000E+00
    -15.331  0.0000E+00  0.0000E+00
    -15.320  0.0000E+00  0.0000E+00
    -15.309  0.0000E+00  0.0000E+00
    -15.298  0.0000E+00  0.0000E+00
    -15.287  0.0000E+00  0.0000E+00
    -15.276  0.0000E+00  0.0000E+00
    -15.266  0.0000E+00  0.0000E+00
    -15.255  0.0000E+00  0.0000E+00
    -15.244  0.0000E+00  0.0000E+00
    -15.233  0.0000E+00  0.0000E+00
    -15.222  0.0000E+00  0.0000E+00
    -15.211  0.0000E+00  0.0000E+00
    -15.200  0.0000E+00  0.0000E+00
    -15.190  0.0000E+00  0.0000E+00
    -15.179  0.0000E+00  0.0000E+00
    -15.168  0.0000E+00  0.0000E+00
    -15.157  0.0000E+00  0.0000E+00
    -15.146  0.0000E+00  0.0000E+00
    -15.135  0.0000E+00  0.0000E+00
    -15.124  0.0000E+00  0.0000E+00
    -15.114  0.0000E+00  0.0000E+00
    -15.103  0.0000E+00  0.0000E+00
    -15.092  0.0000E+00  0.0000E+00
    -15.081  0.0000E+00  0.0000E+00
    -15.070  0.0000E+00  0.0000E+00
    -15.059  0.0000E+00  0.0000E+00
    -15.049  0.0000E+00  0.0000E+00
    -15.038  0.0000E+00  0.0000E+00
    -15.027  0.0000E+00  0.0000E+00
    -15.016  0.0000E+00  0.0000E+00
    -15.005  0.0000E+00  0.0000E+00
    -14.994  0.0000E+00  0.0000E+00
    -14.983  0.0000E+00  0.0000E+00
    -14.973  0.0000E+00  0.0000E+00
    -14.962  0.0000E+00  0.0000E+00
    -14.951  0.0000E+00  0.0000E+00
    -14.940  0.0000E+00  0.0000E+00
    -14.929  0.0000E+00  0.0000E+00
    -14.918  0.0000E+00  0.0000E+00
    -14.907  0.3210E-12  0.3483E-14
    -14.897  0.1165E-07  0.1264E-09
    -14.886  0.4252E-04  0.4616E-06
    -14.875  0.1621E-01  0.1764E-03
    -14.864  0.6941E+00  0.7709E-02
    -14.853  0.3766E+01  0.4857E-01
    -14.842  0.2891E+01  0.7995E-01
    -14.831  0.3076E+00  0.8329E-01
    -14.821  0.3997E-02  0.8333E-01
    -14.810  0.5692E-05  0.8333E-01
    -14.799  0.8358E-09  0.8333E-01
    -14.788  0.1253E-12  0.8333E-01
    -14.777  0.5045E-08  0.8333E-01
    -14.766  0.2254E-04  0.8333E-01
    -14.755  0.1047E-01  0.8345E-01
    -14.745  0.5420E+00  0.8933E-01
    -14.734  0.3511E+01  0.1274E+00
    -14.723  0.3201E+01  0.1622E+00
    -14.712  0.4075E+00  0.1666E+00
    -14.701  0.6414E-02  0.1667E+00
    -14.690  0.1811E-02  0.1667E+00
    -14.680  0.1888E+00  0.1687E+00
    -14.669  0.2376E+01  0.1945E+00
    -14.658  0.4081E+01  0.2388E+00
    -14.647  0.9991E+00  0.2497E+00
    -14.636  0.3159E-01  0.2500E+00
    -14.625  0.1138E-03  0.2500E+00
    -14.614  0.4317E-07  0.2500E+00
    -14.604  0.1654E-11  0.2500E+00
    -14.593  0.0000E+00  0.2500E+00
    -14.582  0.5704E-11  0.2500E+00
    -14.571  0.1332E-06  0.2500E+00
    -14.560  0.3147E-03  0.2500E+00
    -14.549  0.7845E-01  0.2509E+00
    -14.538  0.2240E+01  0.2752E+00
    -14.528  0.8318E+01  0.3654E+00
    -14.517  0.4825E+01  0.4178E+00
    -14.506  0.5283E+01  0.4751E+00
    -14.495  0.8056E+01  0.5626E+00
    -14.484  0.1859E+01  0.5827E+00
    -14.473  0.5521E-01  0.5833E+00
    -14.462  0.1862E-03  0.5833E+00
    -14.452  0.2242E-06  0.5833E+00
    -14.441  0.3577E-03  0.5833E+00
    -14.430  0.8542E-01  0.5843E+00
    -14.419  0.2342E+01  0.6097E+00
    -14.408  0.8444E+01  0.7013E+00
    -14.397  0.6514E+01  0.7720E+00
    -14.387  0.8612E+01  0.8655E+00
    -14.376  0.4399E+01  0.9132E+00
    -14.365  0.3478E+00  0.9170E+00
    -14.354  0.1392E+01  0.9321E+00
    -14.343  0.7898E+01  0.1018E+01
    -14.332  0.1050E+02  0.1132E+01
    -14.321  0.8797E+01  0.1227E+01
    -14.311  0.2031E+01  0.1249E+01
    -14.300  0.6470E-01  0.1250E+01
    -14.289  0.2358E-03  0.1250E+01
    -14.278  0.9047E-07  0.1250E+01
    -14.267  0.3506E-11  0.1250E+01
    -14.256  0.0000E+00  0.1250E+01
    -14.245  0.0000E+00  0.1250E+01
    -14.235  0.1963E-10  0.1250E+01
    -14.224  0.4098E-06  0.1250E+01
    -14.213  0.8667E-03  0.1250E+01
    -14.202  0.1940E+00  0.1252E+01
    -14.191  0.5000E+01  0.1306E+01
    -14.180  0.1686E+02  0.1489E+01
    -14.169  0.8126E+01  0.1578E+01
    -14.159  0.5288E+00  0.1583E+01
    -14.148  0.4077E-02  0.1583E+01
    -14.137  0.3382E-05  0.1583E+01
    -14.126  0.2871E-09  0.1583E+01
    -14.115  0.2373E-07  0.1583E+01
    -14.104  0.1020E-03  0.1583E+01
    -14.093  0.4562E-01  0.1584E+01
    -14.083  0.2276E+01  0.1609E+01
    -14.072  0.1425E+02  0.1763E+01
    -14.061  0.1257E+02  0.1900E+01
    -14.050  0.1546E+01  0.1916E+01
    -14.039  0.2636E-01  0.1917E+01
    -14.028  0.4266E+00  0.1921E+01
    -14.018  0.7361E+01  0.2001E+01
    -14.007  0.1704E+02  0.2186E+01
    -13.996  0.5640E+01  0.2247E+01
    -13.985  0.2461E+00  0.2250E+01
    -13.974  0.1244E-02  0.2250E+01
    -13.963  0.6682E-06  0.2250E+01
    -13.952  0.3641E-10  0.2250E+01
    -13.942  0.0000E+00  0.2250E+01
    -13.931  0.0000E+00  0.2250E+01
    -13.920  0.0000E+00  0.2250E+01
    -13.909  0.0000E+00  0.2250E+01
    -13.898  0.0000E+00  0.2250E+01
    -13.887  0.0000E+00  0.2250E+01
    -13.876  0.0000E+00  0.2250E+01
    -13.866  0.0000E+00  0.2250E+01
    -13.855  0.0000E+00  0.2250E+01
    -13.844  0.0000E+00  0.2250E+01
    -13.833  0.0000E+00  0.2250E+01
    -13.822  0.0000E+00  0.2250E+01
    -13.811  0.0000E+00  0.2250E+01
    -13.800  0.0000E+00  0.2250E+01
    -13.790  0.0000E+00  0.2250E+01
    -13.779  0.0000E+00  0.2250E+01
    -13.768  0.0000E+00  0.2250E+01
    -13.757  0.0000E+00  0.2250E+01
    -13.746  0.0000E+00  0.2250E+01
    -13.735  0.0000E+00  0.2250E+01
    -13.725  0.0000E+00  0.2250E+01
    -13.714  0.0000E+00  0.2250E+01
    -13.703  0.0000E+00  0.2250E+01
    -13.692  0.0000E+00  0.2250E+01
    -13.681  0.0000E+00  0.2250E+01
    -13.670  0.0000E+00  0.2250E+01
    -13.659  0.0000E+00  0.2250E+01
    -13.649  0.0000E+00  0.2250E+01
    -13.638  0.0000E+00  0.2250E+01
    -13.627  0.3860E-10  0.2250E+01
    -13.616  0.6044E-06  0.2250E+01
    -13.605  0.9624E-03  0.2250E+01
    -13.594  0.1635E+00  0.2252E+01
    -13.583  0.3243E+01  0.2287E+01
    -13.573  0.8558E+01  0.2380E+01
    -13.562  0.3498E+01  0.2418E+01
    -13.551  0.4250E+01  0.2464E+01
    -13.540  0.8424E+01  0.2555E+01
    -13.529  0.2480E+01  0.2582E+01
    -13.518  0.9551E-01  0.2583E+01
    -13.507  0.5472E-03  0.2583E+01
    -13.497  0.4193E-01  0.2584E+01
    -13.486  0.1610E+01  0.2601E+01
    -13.475  0.8497E+01  0.2693E+01
    -13.464  0.1145E+02  0.2818E+01
    -13.453  0.7844E+01  0.2903E+01
    -13.442  0.2020E+01  0.2925E+01
    -13.432  0.6293E+01  0.2993E+01
    -13.421  0.7169E+01  0.3071E+01
    -13.410  0.2393E+01  0.3097E+01
    -13.399  0.7338E+01  0.3177E+01
    -13.388  0.6061E+01  0.3242E+01
    -13.377  0.6984E+00  0.3250E+01
    -13.366  0.9882E-02  0.3250E+01
    -13.356  0.1537E-04  0.3250E+01
    -13.345  0.2470E-08  0.3250E+01
    -13.334  0.4092E-13  0.3250E+01
    -13.323  0.0000E+00  0.3250E+01
    -13.312  0.1705E-14  0.3250E+01
    -13.301  0.1847E-09  0.3250E+01
    -13.290  0.2399E-05  0.3250E+01
    -13.280  0.3177E-02  0.3250E+01
    -13.269  0.4524E+00  0.3255E+01
    -13.258  0.7796E+01  0.3340E+01
    -13.247  0.2256E+02  0.3584E+01
    -13.236  0.2249E+02  0.3828E+01
    -13.225  0.7684E+01  0.3912E+01
    -13.214  0.4390E+00  0.3917E+01
    -13.204  0.3098E-02  0.3917E+01
    -13.193  0.3410E-01  0.3917E+01
    -13.182  0.1925E+01  0.3938E+01
    -13.171  0.1354E+02  0.4085E+01
    -13.160  0.1404E+02  0.4237E+01
    -13.149  0.1103E+02  0.4357E+01
    -13.138  0.1764E+02  0.4548E+01
    -13.128  0.1541E+02  0.4716E+01
    -13.117  0.1548E+02  0.4884E+01
    -13.106  0.3569E+01  0.4922E+01
    -13.095  0.8591E+01  0.5016E+01
    -13.084  0.1674E+02  0.5197E+01
    -13.073  0.4697E+01  0.5248E+01
    -13.063  0.1719E+00  0.5250E+01
    -13.052  0.7218E-03  0.5250E+01
    -13.041  0.3203E-06  0.5250E+01
    -13.030  0.1439E-10  0.5250E+01
    -13.019  0.0000E+00  0.5250E+01
    -13.008  0.0000E+00  0.5250E+01
    -12.997  0.0000E+00  0.5250E+01
    -12.987  0.0000E+00  0.5250E+01
    -12.976  0.0000E+00  0.5250E+01
    -12.965  0.0000E+00  0.5250E+01
    -12.954  0.0000E+00  0.5250E+01
    -12.943  0.0000E+00  0.5250E+01
    -12.932  0.0000E+00  0.5250E+01
    -12.921  0.0000E+00  0.5250E+01
    -12.911  0.0000E+00  0.5250E+01
    -12.900  0.0000E+00  0.5250E+01
    -12.889  0.0000E+00  0.5250E+01
    -12.878  0.0000E+00  0.5250E+01
    -12.867  0.0000E+00  0.5250E+01
    -12.856  0.0000E+00  0.5250E+01
    -12.845  0.0000E+00  0.5250E+01
    -12.835  0.0000E+00  0.5250E+01
    -12.824  0.0000E+00  0.5250E+01
    -12.813  0.0000E+00  0.5250E+01
    -12.802  0.0000E+00  0.5250E+01
    -12.791  0.0000E+00  0.5250E+01
    -12.780  0.0000E+00  0.5250E+01
    -12.770  0.0000E+00  0.5250E+01
    -12.759  0.0000E+00  0.5250E+01
    -12.748  0.0000E+00  0.5250E+01
    -12.737  0.0000E+00  0.5250E+01
    -12.726  0.0000E+00  0.5250E+01
    -12.715  0.0000E+00  0.5250E+01
    -12.704  0.0000E+00  0.5250E+01
    -12.694  0.0000E+00  0.5250E+01
    -12.683  0.0000E+00  0.5250E+01
    -12.672  0.0000E+00  0.5250E+01
    -12.661  0.0000E+00  0.5250E+01
    -12.650  0.1586E-12  0.5250E+01
    -12.639  0.7575E-08  0.5250E+01
    -12.628  0.3625E-04  0.5250E+01
    -12.618  0.1801E-01  0.5250E+01
    -12.607  0.9935E+00  0.5261E+01
    -12.596  0.6835E+01  0.5335E+01
    -12.585  0.6603E+01  0.5407E+01
    -12.574  0.8929E+00  0.5417E+01
    -12.563  0.1498E-01  0.5417E+01
    -12.552  0.2784E-04  0.5417E+01
    -12.542  0.5361E-08  0.5417E+01
    -12.531  0.1023E-12  0.5417E+01
    -12.520  0.2558E-14  0.5417E+01
    -12.509  0.2484E-09  0.5417E+01
    -12.498  0.2598E-05  0.5417E+01
    -12.487  0.2781E-02  0.5417E+01
    -12.476  0.3215E+00  0.5420E+01
    -12.466  0.4433E+01  0.5468E+01
    -12.455  0.8303E+01  0.5558E+01
    -12.444  0.2219E+01  0.5582E+01
    -12.433  0.7715E-01  0.5583E+01
    -12.422  0.2670E-01  0.5584E+01
    -12.411  0.1237E+01  0.5597E+01
    -12.401  0.7491E+01  0.5678E+01
    -12.390  0.1115E+02  0.5799E+01
    -12.379  0.1924E+02  0.6008E+01
    -12.368  0.1244E+02  0.6143E+01
    -12.357  0.2085E+01  0.6166E+01
    -12.346  0.7904E-01  0.6167E+01
    -12.335  0.6837E-01  0.6167E+01
    -12.325  0.2850E+01  0.6198E+01
    -12.314  0.1516E+02  0.6363E+01
    -12.303  0.1145E+02  0.6487E+01
    -12.292  0.2885E+01  0.6518E+01
    -12.281  0.1821E+02  0.6716E+01
    -12.270  0.3168E+02  0.7060E+01
    -12.259  0.9406E+01  0.7162E+01
    -12.249  0.4287E+00  0.7167E+01
    -12.238  0.2516E-02  0.7167E+01
    -12.227  0.1656E-05  0.7167E+01
    -12.216  0.1132E-09  0.7167E+01
    -12.205  0.1841E-12  0.7167E+01
    -12.194  0.9723E-08  0.7167E+01
    -12.183  0.5166E-04  0.7167E+01
    -12.173  0.2844E-01  0.7167E+01
    -12.162  0.1732E+01  0.7186E+01
    -12.151  0.1308E+02  0.7328E+01
    -12.140  0.1411E+02  0.7481E+01
    -12.129  0.4947E+01  0.7534E+01
    -12.118  0.3806E+01  0.7576E+01
    -12.108  0.1574E+01  0.7593E+01
    -12.097  0.1017E+02  0.7703E+01
    -12.086  0.1606E+02  0.7877E+01
    -12.075  0.5738E+01  0.7940E+01
    -12.064  0.8371E+01  0.8031E+01
    -12.053  0.4683E+01  0.8081E+01
    -12.042  0.3558E+01  0.8120E+01
    -12.032  0.8559E+01  0.8213E+01
    -12.021  0.3252E+01  0.8248E+01
    -12.010  0.1644E+00  0.8250E+01
    -11.999  0.9726E-03  0.8250E+01
    -11.988  0.2139E-02  0.8250E+01
    -11.977  0.2726E+00  0.8253E+01
    -11.966  0.4154E+01  0.8298E+01
    -11.956  0.9466E+01  0.8401E+01
    -11.945  0.6573E+01  0.8472E+01
    -11.934  0.2398E+01  0.8498E+01
    -11.923  0.6861E+00  0.8506E+01
    -11.912  0.5383E+01  0.8564E+01
    -11.901  0.7808E+01  0.8649E+01
    -11.890  0.1609E+01  0.8666E+01
    -11.880  0.4787E-01  0.8667E+01
    -11.869  0.6433E+00  0.8674E+01
    -11.858  0.8867E+01  0.8770E+01
    -11.847  0.1661E+02  0.8950E+01
    -11.836  0.4439E+01  0.8998E+01
    -11.825  0.1542E+00  0.9000E+01
    -11.815  0.1465E-01  0.9000E+01
    -11.804  0.8595E+00  0.9009E+01
    -11.793  0.6519E+01  0.9080E+01
    -11.782  0.7004E+01  0.9156E+01
    -11.771  0.4339E+01  0.9203E+01
    -11.760  0.1574E+02  0.9374E+01
    -11.749  0.1061E+02  0.9489E+01
    -11.739  0.1642E+01  0.9507E+01
    -11.728  0.8958E+01  0.9604E+01
    -11.717  0.1657E+02  0.9784E+01
    -11.706  0.4381E+01  0.9832E+01
    -11.695  0.1504E+00  0.9833E+01
    -11.684  0.5905E-03  0.9833E+01
    -11.673  0.2446E-06  0.9833E+01
    -11.663  0.4987E-10  0.9833E+01
    -11.652  0.6169E-06  0.9833E+01
    -11.641  0.9770E-03  0.9833E+01
    -11.630  0.1651E+00  0.9835E+01
    -11.619  0.3259E+01  0.9871E+01
    -11.608  0.8556E+01  0.9963E+01
    -11.597  0.3215E+01  0.9998E+01
    -11.587  0.1924E+00  0.1000E+02
    -11.576  0.1375E+01  0.1002E+02
    -11.565  0.7511E+01  0.1010E+02
    -11.554  0.5809E+01  0.1016E+02
    -11.543  0.6228E+00  0.1017E+02
    -11.532  0.3677E-01  0.1017E+02
    -11.521  0.1738E+01  0.1019E+02
    -11.511  0.1308E+02  0.1033E+02
    -11.500  0.1379E+02  0.1048E+02
    -11.489  0.2041E+01  0.1050E+02
    -11.478  0.3775E-01  0.1050E+02
    -11.467  0.3282E-03  0.1050E+02
    -11.456  0.8445E-01  0.1050E+02
    -11.446  0.3214E+01  0.1054E+02
    -11.435  0.1561E+02  0.1071E+02
    -11.424  0.1077E+02  0.1082E+02
    -11.413  0.1023E+01  0.1083E+02
    -11.402  0.1179E-01  0.1083E+02
    -11.391  0.1483E-04  0.1083E+02
    -11.380  0.2970E-08  0.1083E+02
    -11.370  0.9312E-05  0.1083E+02
    -11.359  0.8460E-02  0.1083E+02
    -11.348  0.8347E+00  0.1084E+02
    -11.337  0.9912E+01  0.1095E+02
    -11.326  0.1612E+02  0.1113E+02
    -11.315  0.4473E+01  0.1117E+02
    -11.304  0.9542E+01  0.1128E+02
    -11.294  0.1636E+02  0.1145E+02
    -11.283  0.4046E+01  0.1150E+02
    -11.272  0.1293E+00  0.1150E+02
    -11.261  0.4712E-03  0.1150E+02
    -11.250  0.1808E-06  0.1150E+02
    -11.239  0.7004E-11  0.1150E+02
    -11.228  0.0000E+00  0.1150E+02
    -11.218  0.0000E+00  0.1150E+02
    -11.207  0.0000E+00  0.1150E+02
    -11.196  0.0000E+00  0.1150E+02
    -11.185  0.0000E+00  0.1150E+02
    -11.174  0.0000E+00  0.1150E+02
    -11.163  0.0000E+00  0.1150E+02
    -11.153  0.0000E+00  0.1150E+02
    -11.142  0.0000E+00  0.1150E+02
    -11.131  0.0000E+00  0.1150E+02
    -11.120  0.0000E+00  0.1150E+02
    -11.109  0.0000E+00  0.1150E+02
    -11.098  0.0000E+00  0.1150E+02
    -11.087  0.1367E-11  0.1150E+02
    -11.077  0.4268E-07  0.1150E+02
    -11.066  0.1342E-03  0.1150E+02
    -11.055  0.4425E-01  0.1150E+02
    -11.044  0.1649E+01  0.1152E+02
    -11.033  0.7852E+01  0.1160E+02
    -11.022  0.5312E+01  0.1166E+02
    -11.011  0.4947E+00  0.1167E+02
    -11.001  0.5579E-02  0.1167E+02
    -10.990  0.6860E-05  0.1167E+02
    -10.979  0.8673E-09  0.1167E+02
    -10.968  0.1023E-13  0.1167E+02
    -10.957  0.0000E+00  0.1167E+02
    -10.946  0.0000E+00  0.1167E+02
    -10.935  0.0000E+00  0.1167E+02
    -10.925  0.0000E+00  0.1167E+02
    -10.914  0.0000E+00  0.1167E+02
    -10.903  0.0000E+00  0.1167E+02
    -10.892  0.0000E+00  0.1167E+02
    -10.881  0.0000E+00  0.1167E+02
    -10.870  0.0000E+00  0.1167E+02
    -10.859  0.0000E+00  0.1167E+02
    -10.849  0.4672E-12  0.1167E+02
    -10.838  0.1805E-07  0.1167E+02
    -10.827  0.7010E-04  0.1167E+02
    -10.816  0.2840E-01  0.1167E+02
    -10.805  0.1289E+01  0.1168E+02
    -10.794  0.7383E+01  0.1176E+02
    -10.784  0.5976E+01  0.1183E+02
    -10.773  0.6719E+00  0.1183E+02
    -10.762  0.9261E-02  0.1183E+02
    -10.751  0.1402E-04  0.1183E+02
    -10.740  0.2191E-08  0.1183E+02
    -10.729  0.3410E-13  0.1183E+02
    -10.718  0.0000E+00  0.1183E+02
    -10.708  0.0000E+00  0.1183E+02
    -10.697  0.0000E+00  0.1183E+02
    -10.686  0.0000E+00  0.1183E+02
    -10.675  0.1091E-12  0.1183E+02
    -10.664  0.5589E-08  0.1183E+02
    -10.653  0.2874E-04  0.1183E+02
    -10.642  0.1532E-01  0.1183E+02
    -10.632  0.9045E+00  0.1184E+02
    -10.621  0.6631E+01  0.1192E+02
    -10.610  0.6808E+01  0.1199E+02
    -10.599  0.9810E+00  0.1200E+02
    -10.588  0.1762E-01  0.1200E+02
    -10.577  0.3512E-04  0.1200E+02
    -10.566  0.7269E-08  0.1200E+02
    -10.556  0.1500E-12  0.1200E+02
    -10.545  0.0000E+00  0.1200E+02
    -10.534  0.0000E+00  0.1200E+02
    -10.523  0.0000E+00  0.1200E+02
    -10.512  0.0000E+00  0.1200E+02
    -10.501  0.0000E+00  0.1200E+02
    -10.491  0.0000E+00  0.1200E+02
    -10.480  0.0000E+00  0.1200E+02
    -10.469  0.0000E+00  0.1200E+02
    -10.458  0.0000E+00  0.1200E+02
    -10.447  0.0000E+00  0.1200E+02
    -10.436  0.0000E+00  0.1200E+02
    -10.425  0.0000E+00  0.1200E+02
    -10.415  0.0000E+00  0.1200E+02
    -10.404  0.0000E+00  0.1200E+02
    -10.393  0.0000E+00  0.1200E+02
    -10.382  0.0000E+00  0.1200E+02
    -10.371  0.0000E+00  0.1200E+02
    -10.360  0.0000E+00  0.1200E+02
    -10.349  0.0000E+00  0.1200E+02
    -10.339  0.0000E+00  0.1200E+02
    -10.328  0.0000E+00  0.1200E+02
    -10.317  0.0000E+00  0.1200E+02
    -10.306  0.0000E+00  0.1200E+02
    -10.295  0.2967E-12  0.1200E+02
    -10.284  0.1253E-07  0.1200E+02
    -10.273  0.5316E-04  0.1200E+02
    -10.263  0.2348E-01  0.1200E+02
    -10.252  0.1157E+01  0.1201E+02
    -10.241  0.7161E+01  0.1209E+02
    -10.230  0.6246E+01  0.1216E+02
    -10.219  0.7593E+00  0.1217E+02
    -10.208  0.1138E-01  0.1217E+02
    -10.197  0.2397E-04  0.1217E+02
    -10.187  0.4569E-02  0.1217E+02
    -10.176  0.4376E+00  0.1217E+02
    -10.165  0.5055E+01  0.1223E+02
    -10.154  0.8144E+01  0.1231E+02
    -10.143  0.4799E+01  0.1237E+02
    -10.132  0.8596E+01  0.1246E+02
    -10.122  0.3487E+01  0.1250E+02
    -10.111  0.1902E+00  0.1250E+02
    -10.100  0.1216E-02  0.1250E+02
    -10.089  0.8322E-06  0.1250E+02
    -10.078  0.5797E-10  0.1250E+02
    -10.067  0.0000E+00  0.1250E+02
    -10.056  0.0000E+00  0.1250E+02
    -10.046  0.0000E+00  0.1250E+02
    -10.035  0.0000E+00  0.1250E+02
    -10.024  0.0000E+00  0.1250E+02
    -10.013  0.0000E+00  0.1250E+02
    -10.002  0.0000E+00  0.1250E+02
     -9.991  0.0000E+00  0.1250E+02
     -9.980  0.0000E+00  0.1250E+02
     -9.970  0.0000E+00  0.1250E+02
     -9.959  0.0000E+00  0.1250E+02
     -9.948  0.0000E+00  0.1250E+02
     -9.937  0.0000E+00  0.1250E+02
     -9.926  0.0000E+00  0.1250E+02
     -9.915  0.0000E+00  0.1250E+02
     -9.904  0.0000E+00  0.1250E+02
     -9.894  0.0000E+00  0.1250E+02
     -9.883  0.0000E+00  0.1250E+02
     -9.872  0.0000E+00  0.1250E+02
     -9.861  0.0000E+00  0.1250E+02
     -9.850  0.0000E+00  0.1250E+02
     -9.839  0.0000E+00  0.1250E+02
     -9.829  0.0000E+00  0.1250E+02
     -9.818  0.0000E+00  0.1250E+02
     -9.807  0.1535E-13  0.1250E+02
     -9.796  0.1283E-08  0.1250E+02
     -9.785  0.1086E-04  0.1250E+02
     -9.774  0.9446E-02  0.1250E+02
     -9.763  0.8933E+00  0.1251E+02
     -9.753  0.1019E+02  0.1262E+02
     -9.742  0.1596E+02  0.1279E+02
     -9.731  0.3555E+01  0.1283E+02
     -9.720  0.1016E+00  0.1283E+02
     -9.709  0.3294E-03  0.1283E+02
     -9.698  0.1120E-06  0.1283E+02
     -9.687  0.3847E-11  0.1283E+02
     -9.677  0.0000E+00  0.1283E+02
     -9.666  0.0000E+00  0.1283E+02
     -9.655  0.0000E+00  0.1283E+02
     -9.644  0.2864E-12  0.1283E+02
     -9.633  0.1392E-07  0.1283E+02
     -9.622  0.6796E-04  0.1283E+02
     -9.611  0.3443E-01  0.1283E+02
     -9.601  0.1936E+01  0.1285E+02
     -9.590  0.1356E+02  0.1300E+02
     -9.579  0.1332E+02  0.1315E+02
     -9.568  0.1834E+01  0.1317E+02
     -9.557  0.3209E-01  0.1317E+02
     -9.546  0.1363E+00  0.1317E+02
     -9.536  0.2966E+01  0.1320E+02
     -9.525  0.8541E+01  0.1329E+02
     -9.514  0.3519E+01  0.1333E+02
     -9.503  0.2150E+00  0.1333E+02
     -9.492  0.1462E+01  0.1335E+02
     -9.481  0.1272E+02  0.1349E+02
     -9.470  0.2165E+02  0.1372E+02
     -9.460  0.1941E+02  0.1393E+02
     -9.449  0.6069E+01  0.1400E+02
     -9.438  0.5011E+01  0.1405E+02
     -9.427  0.1676E+02  0.1424E+02
     -9.416  0.8626E+01  0.1433E+02
     -9.405  0.3863E+01  0.1437E+02
     -9.394  0.8561E+01  0.1446E+02
     -9.384  0.3189E+01  0.1450E+02
     -9.373  0.1579E+00  0.1450E+02
     -9.362  0.9118E-03  0.1450E+02
     -9.351  0.5615E-06  0.1450E+02
     -9.340  0.3515E-10  0.1450E+02
     -9.329  0.2387E-13  0.1450E+02
     -9.318  0.1877E-08  0.1450E+02
     -9.308  0.1458E-04  0.1450E+02
     -9.297  0.1165E-01  0.1450E+02
     -9.286  0.1016E+01  0.1451E+02
     -9.275  0.1074E+02  0.1463E+02
     -9.264  0.1563E+02  0.1480E+02
     -9.253  0.3232E+01  0.1483E+02
     -9.242  0.8531E-01  0.1483E+02
     -9.232  0.2544E-03  0.1483E+02
     -9.221  0.5749E-06  0.1483E+02
     -9.210  0.9978E-03  0.1483E+02
     -9.199  0.2135E+00  0.1484E+02
     -9.188  0.5364E+01  0.1489E+02
     -9.177  0.1975E+02  0.1511E+02
     -9.167  0.1634E+02  0.1529E+02
     -9.156  0.4180E+01  0.1533E+02
     -9.145  0.2184E+00  0.1533E+02
     -9.134  0.1474E-02  0.1533E+02
     -9.123  0.1080E-05  0.1533E+02
     -9.112  0.8078E-10  0.1533E+02
     -9.101  0.0000E+00  0.1533E+02
     -9.091  0.8056E-11  0.1533E+02
     -9.080  0.2020E-06  0.1533E+02
     -9.069  0.5120E-03  0.1533E+02
     -9.058  0.1367E+00  0.1533E+02
     -9.047  0.4167E+01  0.1538E+02
     -9.036  0.1644E+02  0.1556E+02
     -9.025  0.9324E+01  0.1566E+02
     -9.015  0.3631E+01  0.1570E+02
     -9.004  0.1525E+02  0.1586E+02
     -8.993  0.1130E+02  0.1599E+02
     -8.982  0.1164E+01  0.1600E+02
     -8.971  0.1467E-01  0.1600E+02
     -8.960  0.2034E-04  0.1600E+02
     -8.949  0.2928E-08  0.1600E+02
     -8.939  0.1929E-06  0.1600E+02
     -8.928  0.4145E-03  0.1600E+02
     -8.917  0.9456E-01  0.1600E+02
     -8.906  0.2575E+01  0.1603E+02
     -8.895  0.1218E+02  0.1616E+02
     -8.884  0.2025E+02  0.1638E+02
     -8.874  0.1014E+02  0.1649E+02
     -8.863  0.1227E+01  0.1650E+02
     -8.852  0.5276E+01  0.1656E+02
     -8.841  0.1443E+02  0.1672E+02
     -8.830  0.1778E+02  0.1691E+02
     -8.819  0.7576E+01  0.1699E+02
     -8.808  0.6137E+00  0.1700E+02
     -8.798  0.2004E-01  0.1700E+02
     -8.787  0.1093E+01  0.1701E+02
     -8.776  0.1105E+02  0.1713E+02
     -8.765  0.1543E+02  0.1730E+02
     -8.754  0.3055E+01  0.1733E+02
     -8.743  0.2096E+00  0.1733E+02
     -8.732  0.2927E+01  0.1737E+02
     -8.722  0.8536E+01  0.1746E+02
     -8.711  0.3562E+01  0.1750E+02
     -8.700  0.1989E+00  0.1750E+02
     -8.689  0.5864E-02  0.1750E+02
     -8.678  0.5675E+00  0.1751E+02
     -8.667  0.8390E+01  0.1760E+02
     -8.656  0.1678E+02  0.1778E+02
     -8.646  0.4794E+01  0.1783E+02
     -8.635  0.1791E+00  0.1783E+02
     -8.624  0.5315E-01  0.1783E+02
     -8.613  0.1300E+01  0.1785E+02
     -8.602  0.4232E+01  0.1789E+02
     -8.591  0.2002E+01  0.1792E+02
     -8.580  0.1508E+01  0.1793E+02
     -8.570  0.7527E+01  0.1801E+02
     -8.559  0.5790E+01  0.1808E+02
     -8.548  0.6182E+00  0.1808E+02
     -8.537  0.1612E+00  0.1809E+02
     -8.526  0.3258E+01  0.1812E+02
     -8.515  0.1561E+02  0.1829E+02
     -8.505  0.1669E+02  0.1847E+02
     -8.494  0.5756E+01  0.1853E+02
     -8.483  0.3866E+01  0.1858E+02
     -8.472  0.7173E+00  0.1858E+02
     -8.461  0.1724E-01  0.1858E+02
     -8.450  0.3626E-01  0.1858E+02
     -8.439  0.2591E+01  0.1861E+02
     -8.429  0.2332E+02  0.1886E+02
     -8.418  0.2982E+02  0.1919E+02
     -8.407  0.5526E+01  0.1925E+02
     -8.396  0.1332E+00  0.1925E+02
     -8.385  0.3710E-03  0.1925E+02
     -8.374  0.1106E-06  0.1925E+02
     -8.363  0.3390E-11  0.1925E+02
     -8.353  0.0000E+00  0.1925E+02
     -8.342  0.0000E+00  0.1925E+02
     -8.331  0.0000E+00  0.1925E+02
     -8.320  0.0000E+00  0.1925E+02
     -8.309  0.7843E-13  0.1925E+02
     -8.298  0.4299E-08  0.1925E+02
     -8.287  0.2351E-04  0.1925E+02
     -8.277  0.1332E-01  0.1925E+02
     -8.266  0.8333E+00  0.1926E+02
     -8.255  0.6451E+01  0.1933E+02
     -8.244  0.6978E+01  0.1940E+02
     -8.233  0.1062E+01  0.1942E+02
     -8.222  0.2020E-01  0.1942E+02
     -8.212  0.4278E-04  0.1942E+02
     -8.201  0.9418E-08  0.1942E+02
     -8.190  0.6189E-12  0.1942E+02
     -8.179  0.1865E-07  0.1942E+02
     -8.168  0.8491E-04  0.1942E+02
     -8.157  0.4019E-01  0.1942E+02
     -8.146  0.2117E+01  0.1944E+02
     -8.136  0.1394E+02  0.1959E+02
     -8.125  0.1292E+02  0.1973E+02
     -8.114  0.1672E+01  0.1975E+02
     -8.103  0.2678E-01  0.1975E+02
     -8.092  0.4740E-04  0.1975E+02
     -8.081  0.8687E-08  0.1975E+02
     -8.070  0.1603E-12  0.1975E+02
     -8.060  0.0000E+00  0.1975E+02
     -8.049  0.0000E+00  0.1975E+02
     -8.038  0.6820E-14  0.1975E+02
     -8.027  0.5686E-09  0.1975E+02
     -8.016  0.4947E-05  0.1975E+02
     -8.005  0.4418E-02  0.1975E+02
     -7.994  0.4287E+00  0.1975E+02
     -7.984  0.5011E+01  0.1981E+02
     -7.973  0.8029E+01  0.1990E+02
     -7.962  0.1831E+01  0.1992E+02
     -7.951  0.5366E-01  0.1992E+02
     -7.940  0.1785E-03  0.1992E+02
     -7.929  0.2507E-04  0.1992E+02
     -7.918  0.1709E-01  0.1992E+02
     -7.908  0.1280E+01  0.1993E+02
     -7.897  0.1174E+02  0.2006E+02
     -7.886  0.1493E+02  0.2022E+02
     -7.875  0.2686E+01  0.2025E+02
     -7.864  0.6110E-01  0.2025E+02
     -7.853  0.1560E-03  0.2025E+02
     -7.843  0.4154E-07  0.2025E+02
     -7.832  0.1112E-11  0.2025E+02
     -7.821  0.0000E+00  0.2025E+02
     -7.810  0.0000E+00  0.2025E+02
     -7.799  0.0000E+00  0.2025E+02
     -7.788  0.0000E+00  0.2025E+02
     -7.777  0.0000E+00  0.2025E+02
     -7.767  0.0000E+00  0.2025E+02
     -7.756  0.0000E+00  0.2025E+02
     -7.745  0.0000E+00  0.2025E+02
     -7.734  0.0000E+00  0.2025E+02
     -7.723  0.0000E+00  0.2025E+02
     -7.712  0.0000E+00  0.2025E+02
     -7.701  0.0000E+00  0.2025E+02
     -7.691  0.0000E+00  0.2025E+02
     -7.680  0.0000E+00  0.2025E+02
     -7.669  0.0000E+00  0.2025E+02
     -7.658  0.0000E+00  0.2025E+02
     -7.647  0.0000E+00  0.2025E+02
     -7.636  0.0000E+00  0.2025E+02
     -7.625  0.0000E+00  0.2025E+02
     -7.615  0.0000E+00  0.2025E+02
     -7.604  0.0000E+00  0.2025E+02
     -7.593  0.0000E+00  0.2025E+02
     -7.582  0.3410E-14  0.2025E+02
     -7.571  0.3503E-09  0.2025E+02
     -7.560  0.3957E-05  0.2025E+02
     -7.550  0.4568E-02  0.2025E+02
     -7.539  0.5682E+00  0.2026E+02
     -7.528  0.8394E+01  0.2035E+02
     -7.517  0.1678E+02  0.2053E+02
     -7.506  0.4791E+01  0.2058E+02
     -7.495  0.1786E+00  0.2058E+02
     -7.484  0.7647E-03  0.2058E+02
     -7.474  0.3358E-05  0.2058E+02
     -7.463  0.3748E-02  0.2058E+02
     -7.452  0.5013E+00  0.2059E+02
     -7.441  0.7939E+01  0.2067E+02
     -7.430  0.1765E+02  0.2087E+02
     -7.419  0.1454E+02  0.2102E+02
     -7.408  0.1659E+02  0.2120E+02
     -7.398  0.4076E+01  0.2125E+02
     -7.387  0.1311E+00  0.2125E+02
     -7.376  0.4810E-03  0.2125E+02
     -7.365  0.1858E-06  0.2125E+02
     -7.354  0.7250E-11  0.2125E+02
     -7.343  0.0000E+00  0.2125E+02
     -7.332  0.0000E+00  0.2125E+02
     -7.322  0.0000E+00  0.2125E+02
     -7.311  0.0000E+00  0.2125E+02
     -7.300  0.0000E+00  0.2125E+02
     -7.289  0.0000E+00  0.2125E+02
     -7.278  0.5968E-14  0.2125E+02
     -7.267  0.5532E-09  0.2125E+02
     -7.257  0.4842E-05  0.2125E+02
     -7.246  0.4351E-02  0.2125E+02
     -7.235  0.4246E+00  0.2125E+02
     -7.224  0.4992E+01  0.2131E+02
     -7.213  0.8039E+01  0.2140E+02
     -7.202  0.1843E+01  0.2142E+02
     -7.191  0.5432E-01  0.2142E+02
     -7.181  0.1818E-03  0.2142E+02
     -7.170  0.6393E-07  0.2142E+02
     -7.159  0.2268E-11  0.2142E+02
     -7.148  0.0000E+00  0.2142E+02
     -7.137  0.0000E+00  0.2142E+02
     -7.126  0.0000E+00  0.2142E+02
     -7.115  0.0000E+00  0.2142E+02
     -7.105  0.0000E+00  0.2142E+02
     -7.094  0.0000E+00  0.2142E+02
     -7.083  0.2558E-14  0.2142E+02
     -7.072  0.2295E-09  0.2142E+02
     -7.061  0.2443E-05  0.2142E+02
     -7.050  0.2660E-02  0.2142E+02
     -7.039  0.3127E+00  0.2142E+02
     -7.029  0.4380E+01  0.2147E+02
     -7.018  0.8324E+01  0.2156E+02
     -7.007  0.2259E+01  0.2158E+02
     -6.996  0.7972E-01  0.2158E+02
     -6.985  0.3224E-03  0.2158E+02
     -6.974  0.1376E-06  0.2158E+02
     -6.963  0.8403E-11  0.2158E+02
     -6.953  0.6823E-07  0.2158E+02
     -6.942  0.1909E-03  0.2158E+02
     -6.931  0.5614E-01  0.2158E+02
     -6.920  0.1876E+01  0.2160E+02
     -6.909  0.8080E+01  0.2169E+02
     -6.898  0.5734E+01  0.2175E+02
     -6.888  0.6759E+01  0.2183E+02