PROCAR lm decomposed
# of k-points:    6         # of bands:   40         # of ions:   12

 k-point     1 :    0.00000000 0.00000000 0.00000000     weight = 0.08333333

band     1 # energy  -14.84700174 # occ.  2.00000000
 
ion      s     py     pz     px    dxy    dyz    dz2    dxz  x2-y2    tot
    1  0.017  0.001  0.000  0.000  0.000  0.000  0.000  0.000  0.000  0.018
    2  0.017  0.001  0.000  0.000  0.000  0.000  0.000  0.000  0.000  0.018
    3  0.023  0.000  0.000  0.000  0.000  0.000  0.000  0.000  0.000  0.024
    4  0.023  0.000  0.000  0.000  0.000  0.000  0.000  0.000  0.000  0.024
    5  0.082  0.002  0.001  0.000  0.000  0.000  0.000  0.000  0.000  0.085
    6  0.082  0.002  0.001  0.000  0.000  0.000  0.000  0.000  0.000  0.085
    7  0.082  0.002  0.001  0.000  0.000  0.000  0.000  0.000  0.000  0.085
    8  0.082  0.002  0.001  0.000  0.000  0.000  0.000  0.000  0.000  0.085
    9  0.023  0.000  0.000  0.000  0.000  0.000  0.000  0.000  0.000  0.024
   10  0.023  0.000  0.000  0.000  0.000  0.000  0.000  0.000  0.000  0.024
   11  0.017  0.001  0.000  0.000  0.000  0.000  0.000  0.000  0.000  0.018
   12  0.017  0.001  0.000  0.000  0.000  0.000  0.000  0.000  0.000  0.018
tot    0.488  0.014  0.008  0.000  0.000  0.000  0.000  0.000  0.000  0.510
 
band     2 # energy  -14.72602960 # occ.  2.00000000
 
ion      s     py     pz     px    dxy    dyz    dz2    dxz  x2-y2    tot
    1  0.059  0.002  0.001  0.000  0.000  0.000  0.000  0.000  0.000  0.062
    2  0.059  0.002  0.001  0.000  0.000  0.000  0.000  0.000  0.000  0.062
    3  0.063  0.002  0.001  0.000  0.000  0.000  0.000  0.000  0.000  0.066
    4  0.063  0.002  0.001  0.000  0.000  0.000  0.000  0.000  0.000  0.066
    5  0.000  0.000  0.000  0.000  0.000  0.000  0.000  0.000  0.000  0.000
    6  0.000  0.000  0.000  0.000  0.000  0.000  0.000  0.000  0.000  0.000
    7  0.000  0.000  0.000  0.000  0.000  0.000  0.000  0.000  0.000  0.000
    8  0.000  0.000  0.000  0.000  0.000  0.000  0.000  0.000  0.000  0.000
    9  0.063  0.002  0.001  0.000  0.000  0.000  0.000  0.000  0.000  0.066
   10  0.063  0.002  0.001  0.000  0.000  0.000  0.000  0.000  0.000  0.066
   11  0.059  0.002  0.001  0.000  0.000  0.000  0.000  0.000  0.000  0.062
   12  0.059  0.002  0.001  0.000  0.000  0.000  0.000  0.000  0.000  0.062
tot    0.490  0.017  0.008  0.000  0.000  0.000  0.000  0.000  0.000  0.514
 
band     3 # energy  -14.65752855 # occ.  2.00000000
 
ion      s     py     pz     px    dxy    dyz    dz2    dxz  x2-y2    tot
    1  0.043  0.001  0.001  0.000  0.000  0.000  0.000  0.000  0.000  0.045
    2  0.043  0.001  0.001  0.000  0.000  0.000  0.000  0.000  0.000  0.045
    3  0.039  0.002  0.001  0.000  0.000  0.000  0.000  0.000  0.000  0.042
    4  0.039  0.002  0.001  0.000  0.000  0.000  0.000  0.000  0.000  0.042
    5  0.041  0.002  0.001  0.000  0.000  0.000  0.000  0.000  0.000  0.043
    6  0.041  0.002  0.001  0.000  0.000  0.000  0.000  0.000  0.000  0.043
    7  0.041  0.002  0.001  0.000  0.000  0.000  0.000  0.000  0.000  0.043
    8  0.041  0.002  0.001  0.000  0.000  0.000  0.000  0.000  0.000  0.043
    9  0.039  0.002  0.001  0.000  0.000  0.000  0.000  0.000  0.000  0.042
   10  0.039  0.002  0.001  0.000  0.000  0.000  0.000  0.000  0.000  0.042
   11  0.043  0.001  0.001  0.000  0.000  0.000  0.000  0.000  0.000  0.045
   12  0.043  0.001  0.001  0.000  0.000  0.000  0.000  0.000  0.000  0.045
tot    0.491  0.019  0.008  0.000  0.000  0.000  0.000  0.000  0.000  0.519
 
band     4 # energy  -12.36710006 # occ.  2.00000000
 
ion      s     py     pz     px    dxy    dyz    dz2    dxz  x2-y2    tot
    1  0.030  0.000  0.002  0.000  0.000  0.000  0.000  0.000  0.000  0.033
    2  0.030  0.000  0.002  0.000  0.000  0.000  0.000  0.000  0.000  0.033
    3  0.022  0.001  0.002  0.000  0.000  0.000  0.000  0.000  0.000  0.025
    4  0.022  0.001  0.002  0.000  0.000  0.000  0.000  0.000  0.000  0.025
    5  0.071  0.001  0.006  0.000  0.000  0.000  0.000  0.000  0.000  0.078
    6  0.071  0.001  0.006  0.000  0.000  0.000  0.000  0.000  0.000  0.078
    7  0.071  0.001  0.006  0.000  0.000  0.000  0.000  0.000  0.000  0.078
    8  0.071  0.001  0.006  0.000  0.000  0.000  0.000  0.000  0.000  0.078
    9  0.022  0.001  0.002  0.000  0.000  0.000  0.000  0.000  0.000  0.025
   10  0.022  0.001  0.002  0.000  0.000  0.000  0.000  0.000  0.000  0.025
   11  0.030  0.000  0.002  0.000  0.000  0.000  0.000  0.000  0.000  0.033
   12  0.030  0.000  0.002  0.000  0.000  0.000  0.000  0.000  0.000  0.033
tot    0.493  0.008  0.041  0.000  0.000  0.000  0.000  0.000  0.000  0.542
 
band     5 # energy  -12.12148833 # occ.  2.00000000
 
ion      s     py     pz     px    dxy    dyz    dz2    dxz  x2-y2    tot
    1  0.064  0.001  0.006  0.000  0.000  0.000  0.000  0.000  0.000  0.071
    2  0.064  0.001  0.006  0.000  0.000  0.000  0.000  0.000  0.000  0.071
    3  0.061  0.001  0.006  0.000  0.000  0.000  0.000  0.000  0.000  0.068
    4  0.061  0.001  0.006  0.000  0.000  0.000  0.000  0.000  0.000  0.068
    5  0.000  0.000  0.000  0.000  0.000  0.000  0.000  0.000  0.000  0.001
    6  0.000  0.000  0.000  0.000  0.000  0.000  0.000  0.000  0.000  0.001
    7  0.000  0.000  0.000  0.000  0.000  0.000  0.000  0.000  0.000  0.001
    8  0.000  0.000  0.000  0.000  0.000  0.000  0.000  0.000  0.000  0.001
    9  0.061  0.001  0.006  0.000  0.000  0.000  0.000  0.000  0.000  0.068
   10  0.061  0.001  0.006  0.000  0.000  0.000  0.000  0.000  0.000  0.068
   11  0.064  0.001  0.006  0.000  0.000  0.000  0.000  0.000  0.000  0.071
   12  0.064  0.001  0.006  0.000  0.000  0.000  0.000  0.000  0.000  0.071
tot    0.504  0.006  0.046  0.000  0.000  0.000  0.000  0.000  0.000  0.557
 
band     6 # energy  -11.94162192 # occ.  2.00000000
 
ion      s     py     pz     px    dxy    dyz    dz2    dxz  x2-y2    tot
    1  0.035  0.001  0.004  0.000  0.000  0.000  0.000  0.000  0.000  0.039
    2  0.035  0.001  0.004  0.000  0.000  0.000  0.000  0.000  0.000  0.039
    3  0.039  0.000  0.004  0.000  0.000  0.000  0.000  0.000  0.000  0.043
    4  0.039  0.000  0.004  0.000  0.000  0.000  0.000  0.000  0.000  0.043
    5  0.055  0.000  0.006  0.000  0.000  0.000  0.000  0.000  0.000  0.061
    6  0.055  0.000  0.006  0.000  0.000  0.000  0.000  0.000  0.000  0.061
    7  0.055  0.000  0.006  0.000  0.000  0.000  0.000  0.000  0.000  0.061
    8  0.055  0.000  0.006  0.000  0.000  0.000  0.000  0.000  0.000  0.061
    9  0.039  0.000  0.004  0.000  0.000  0.000  0.000  0.000  0.000  0.043
   10  0.039  0.000  0.004  0.000  0.000  0.000  0.000  0.000  0.000  0.043
   11  0.035  0.001  0.004  0.000  0.000  0.000  0.000  0.000  0.000  0.039
   12  0.035  0.001  0.004  0.000  0.000  0.000  0.000  0.000  0.000  0.039
tot    0.515  0.004  0.052  0.000  0.000  0.000  0.000  0.000  0.000  0.571
 
band     7 # energy   -8.59512866 # occ.  2.00000000
 
ion      s     py     pz     px    dxy    dyz    dz2    dxz  x2-y2    tot
    1  0.014  0.002  0.001  0.000  0.000  0.000  0.000  0.000  0.000  0.017
    2  0.014  0.002  0.001  0.000  0.000  0.000  0.000  0.000  0.000  0.017
    3  0.017  0.001  0.002  0.000  0.000  0.000  0.000  0.000  0.000  0.020
    4  0.017  0.001  0.002  0.000  0.000  0.000  0.000  0.000  0.000  0.020
    5  0.095  0.009  0.009  0.000  0.000  0.000  0.000  0.000  0.000  0.113
    6  0.095  0.009  0.009  0.000  0.000  0.000  0.000  0.000  0.000  0.113
    7  0.095  0.009  0.009  0.000  0.000  0.000  0.000  0.000  0.000  0.113
    8  0.095  0.009  0.009  0.000  0.000  0.000  0.000  0.000  0.000  0.113
    9  0.017  0.001  0.002  0.000  0.000  0.000  0.000  0.000  0.000  0.020
   10  0.017  0.001  0.002  0.000  0.000  0.000  0.000  0.000  0.000  0.020
   11  0.014  0.002  0.001  0.000  0.000  0.000  0.000  0.000  0.000  0.017
   12  0.014  0.002  0.001  0.000  0.000  0.000  0.000  0.000  0.000  0.017
tot    0.502  0.048  0.047  0.000  0.000  0.000  0.000  0.000  0.000  0.597
 
band     8 # energy   -8.50956433 # occ.  2.00000000
 
ion      s     py     pz     px    dxy    dyz    dz2    dxz  x2-y2    tot
    1  0.062  0.007  0.006  0.000  0.000  0.000  0.000  0.000  0.000  0.074
    2  0.062  0.007  0.006  0.000  0.000  0.000  0.000  0.000  0.000  0.074
    3  0.064  0.006  0.006  0.000  0.000  0.000  0.000  0.000  0.000  0.076
    4  0.064  0.006  0.006  0.000  0.000  0.000  0.000  0.000  0.000  0.076
    5  0.000  0.000  0.000  0.000  0.000  0.000  0.000  0.000  0.000  0.000
    6  0.000  0.000  0.000  0.000  0.000  0.000  0.000  0.000  0.000  0.000
    7  0.000  0.000  0.000  0.000  0.000  0.000  0.000  0.000  0.000  0.000
    8  0.000  0.000  0.000  0.000  0.000  0.000  0.000  0.000  0.000  0.000
    9  0.064  0.006  0.006  0.000  0.000  0.000  0.000  0.000  0.000  0.076
   10  0.064  0.006  0.006  0.000  0.000  0.000  0.000  0.000  0.000  0.076
   11  0.062  0.007  0.006  0.000  0.000  0.000  0.000  0.000  0.000  0.074
   12  0.062  0.007  0.006  0.000  0.000  0.000  0.000  0.000  0.000  0.074
tot    0.502  0.052  0.046  0.000  0.000  0.000  0.000  0.000  0.000  0.600
 
band     9 # energy   -8.47971409 # occ.  2.00000000
 
ion      s     py     pz     px    dxy    dyz    dz2    dxz  x2-y2    tot
    1  0.048  0.005  0.004  0.000  0.000  0.000  0.000  0.000  0.000  0.057
    2  0.048  0.005  0.004  0.000  0.000  0.000  0.000  0.000  0.000  0.057
    3  0.047  0.005  0.004  0.000  0.000  0.000  0.000  0.000  0.000  0.056
    4  0.047  0.005  0.004  0.000  0.000  0.000  0.000  0.000  0.000  0.056
    5  0.031  0.004  0.003  0.000  0.000  0.000  0.000  0.000  0.000  0.037
    6  0.031  0.004  0.003  0.000  0.000  0.000  0.000  0.000  0.000  0.037
    7  0.031  0.004  0.003  0.000  0.000  0.000  0.000  0.000  0.000  0.037
    8  0.031  0.004  0.003  0.000  0.000  0.000  0.000  0.000  0.000  0.037
    9  0.047  0.005  0.004  0.000  0.000  0.000  0.000  0.000  0.000  0.056
   10  0.047  0.005  0.004  0.000  0.000  0.000  0.000  0.000  0.000  0.056
   11  0.048  0.005  0.004  0.000  0.000  0.000  0.000  0.000  0.000  0.057
   12  0.048  0.005  0.004  0.000  0.000  0.000  0.000  0.000  0.000  0.057
tot    0.502  0.055  0.046  0.000  0.000  0.000  0.000  0.000  0.000  0.603
 
band    10 # energy   -5.91764298 # occ.  2.00000000
 
ion      s     py     pz     px    dxy    dyz    dz2    dxz  x2-y2    tot
    1  0.001  0.011  0.007  0.000  0.000  0.000  0.000  0.000  0.000  0.019
    2  0.001  0.011  0.007  0.000  0.000  0.000  0.000  0.000  0.000  0.019
    3  0.000  0.023  0.000  0.000  0.000  0.000  0.000  0.000  0.000  0.023
    4  0.000  0.023  0.000  0.000  0.000  0.000  0.000  0.000  0.000  0.023
    5  0.001  0.047  0.007  0.000  0.000  0.000  0.000  0.000  0.000  0.054
    6  0.001  0.047  0.007  0.000  0.000  0.000  0.000  0.000  0.000  0.054
    7  0.001  0.047  0.007  0.000  0.000  0.000  0.000  0.000  0.000  0.054
    8  0.001  0.047  0.007  0.000  0.000  0.000  0.000  0.000  0.000  0.054
    9  0.000  0.023  0.000  0.000  0.000  0.000  0.000  0.000  0.000  0.023
   10  0.000  0.023  0.000  0.000  0.000  0.000  0.000  0.000  0.000  0.023
   11  0.001  0.011  0.007  0.000  0.000  0.000  0.000  0.000  0.000  0.019
   12  0.001  0.011  0.007  0.000  0.000  0.000  0.000  0.000  0.000  0.019
tot    0.008  0.320  0.054  0.000  0.000  0.000  0.000  0.000  0.000  0.382
 
band    11 # energy   -5.53912052 # occ.  2.00000000
 
ion      s     py     pz     px    dxy    dyz    dz2    dxz  x2-y2    tot
    1  0.002  0.030  0.011  0.000  0.000  0.000  0.000  0.000  0.000  0.043
    2  0.002  0.030  0.011  0.000  0.000  0.000  0.000  0.000  0.000  0.043
    3  0.001  0.038  0.006  0.000  0.000  0.000  0.000  0.000  0.000  0.045
    4  0.001  0.038  0.006  0.000  0.000  0.000  0.000  0.000  0.000  0.045
    5  0.000  0.003  0.009  0.000  0.000  0.000  0.000  0.000  0.000  0.012
    6  0.000  0.003  0.009  0.000  0.000  0.000  0.000  0.000  0.000  0.012
    7  0.000  0.003  0.009  0.000  0.000  0.000  0.000  0.000  0.000  0.012
    8  0.000  0.003  0.009  0.000  0.000  0.000  0.000  0.000  0.000  0.012
    9  0.001  0.038  0.006  0.000  0.000  0.000  0.000  0.000  0.000  0.045
   10  0.001  0.038  0.006  0.000  0.000  0.000  0.000  0.000  0.000  0.045
   11  0.002  0.030  0.011  0.000  0.000  0.000  0.000  0.000  0.000  0.043
   12  0.002  0.030  0.011  0.000  0.000  0.000  0.000  0.000  0.000  0.043
tot    0.011  0.286  0.100  0.000  0.000  0.000  0.000  0.000  0.000  0.397
 
band    12 # energy   -5.12052139 # occ.  2.00000000
 
ion      s     py     pz     px    dxy    dyz    dz2    dxz  x2-y2    tot
    1  0.001  0.031  0.002  0.000  0.000  0.000  0.000  0.000  0.000  0.034
    2  0.001  0.031  0.002  0.000  0.000  0.000  0.000  0.000  0.000  0.034
    3  0.001  0.015  0.021  0.000  0.000  0.000  0.000  0.000  0.000  0.038
    4  0.001  0.015  0.021  0.000  0.000  0.000  0.000  0.000  0.000  0.038
    5  0.001  0.022  0.012  0.000  0.000  0.000  0.000  0.000  0.000  0.035
    6  0.001  0.022  0.012  0.000  0.000  0.000  0.000  0.000  0.000  0.035
    7  0.001  0.022  0.012  0.000  0.000  0.000  0.000  0.000  0.000  0.035
    8  0.001  0.022  0.012  0.000  0.000  0.000  0.000  0.000  0.000  0.035
    9  0.001  0.015  0.021  0.000  0.000  0.000  0.000  0.000  0.000  0.038
   10  0.001  0.015  0.021  0.000  0.000  0.000  0.000  0.000  0.000  0.038
   11  0.001  0.031  0.002  0.000  0.000  0.000  0.000  0.000  0.000  0.034
   12  0.001  0.031  0.002  0.000  0.000  0.000  0.000  0.000  0.000  0.034
tot    0.016  0.274  0.140  0.000  0.000  0.000  0.000  0.000  0.000  0.429
 
band    13 # energy   -4.49768978 # occ.  2.00000000
 
ion      s     py     pz     px    dxy    dyz    dz2    dxz  x2-y2    tot
    1  0.001  0.017  0.007  0.000  0.000  0.000  0.000  0.000  0.000  0.026
    2  0.001  0.017  0.007  0.000  0.000  0.000  0.000  0.000  0.000  0.026
    3  0.000  0.000  0.033  0.000  0.000  0.000  0.000  0.000  0.000  0.034
    4  0.000  0.000  0.033  0.000  0.000  0.000  0.000  0.000  0.000  0.034
    5  0.000  0.007  0.021  0.000  0.000  0.000  0.000  0.000  0.000  0.028
    6  0.000  0.007  0.021  0.000  0.000  0.000  0.000  0.000  0.000  0.028
    7  0.000  0.007  0.021  0.000  0.000  0.000  0.000  0.000  0.000  0.028
    8  0.000  0.007  0.021  0.000  0.000  0.000  0.000  0.000  0.000  0.028
    9  0.000  0.000  0.033  0.000  0.000  0.000  0.000  0.000  0.000  0.034
   10  0.000  0.000  0.033  0.000  0.000  0.000  0.000  0.000  0.000  0.034
   11  0.001  0.017  0.007  0.000  0.000  0.000  0.000  0.000  0.000  0.026
   12  0.001  0.017  0.007  0.000  0.000  0.000  0.000  0.000  0.000  0.026
tot    0.003  0.099  0.248  0.000  0.000  0.000  0.000  0.000  0.000  0.350
 
band    14 # energy   -4.49503386 # occ.  2.00000000
 
ion      s     py     pz     px    dxy    dyz    dz2    dxz  x2-y2    tot
    1  0.029  0.001  0.003  0.000  0.000  0.000  0.000  0.000  0.000  0.032
    2  0.029  0.001  0.003  0.000  0.000  0.000  0.000  0.000  0.000  0.032
    3  0.025  0.003  0.003  0.000  0.000  0.000  0.000  0.000  0.000  0.031
    4  0.025  0.003  0.003  0.000  0.000  0.000  0.000  0.000  0.000  0.031
    5  0.076  0.005  0.008  0.000  0.000  0.000  0.000  0.000  0.000  0.089
    6  0.076  0.005  0.008  0.000  0.000  0.000  0.000  0.000  0.000  0.089
    7  0.076  0.005  0.008  0.000  0.000  0.000  0.000  0.000  0.000  0.089
    8  0.076  0.005  0.008  0.000  0.000  0.000  0.000  0.000  0.000  0.089
    9  0.025  0.003  0.003  0.000  0.000  0.000  0.000  0.000  0.000  0.031
   10  0.025  0.003  0.003  0.000  0.000  0.000  0.000  0.000  0.000  0.031
   11  0.029  0.001  0.003  0.000  0.000  0.000  0.000  0.000  0.000  0.032
   12  0.029  0.001  0.003  0.000  0.000  0.000  0.000  0.000  0.000  0.032
tot    0.519  0.033  0.057  0.000  0.000  0.000  0.000  0.000  0.000  0.610
 
band    15 # energy   -4.17688001 # occ.  2.00000000
 
ion      s     py     pz     px    dxy    dyz    dz2    dxz  x2-y2    tot
    1  0.069  0.003  0.007  0.000  0.000  0.000  0.000  0.000  0.000  0.079
    2  0.069  0.003  0.007  0.000  0.000  0.000  0.000  0.000  0.000  0.079
    3  0.068  0.004  0.007  0.000  0.000  0.000  0.000  0.000  0.000  0.079
    4  0.068  0.004  0.007  0.000  0.000  0.000  0.000  0.000  0.000  0.079
    5  0.000  0.001  0.000  0.000  0.000  0.000  0.000  0.000  0.000  0.001
    6  0.000  0.001  0.000  0.000  0.000  0.000  0.000  0.000  0.000  0.001
    7  0.000  0.001  0.000  0.000  0.000  0.000  0.000  0.000  0.000  0.001
    8  0.000  0.001  0.000  0.000  0.000  0.000  0.000  0.000  0.000  0.001
    9  0.068  0.004  0.007  0.000  0.000  0.000  0.000  0.000  0.000  0.079
   10  0.068  0.004  0.007  0.000  0.000  0.000  0.000  0.000  0.000  0.079
   11  0.069  0.003  0.007  0.000  0.000  0.000  0.000  0.000  0.000  0.079
   12  0.069  0.003  0.007  0.000  0.000  0.000  0.000  0.000  0.000  0.079
tot    0.546  0.032  0.058  0.000  0.000  0.000  0.000  0.000  0.000  0.635
 
band    16 # energy   -4.13471586 # occ.  2.00000000
 
ion      s     py     pz     px    dxy    dyz    dz2    dxz  x2-y2    tot
    1  0.001  0.006  0.035  0.000  0.000  0.000  0.000  0.000  0.000  0.041
    2  0.001  0.006  0.035  0.000  0.000  0.000  0.000  0.000  0.000  0.041
    3  0.001  0.009  0.024  0.000  0.000  0.000  0.000  0.000  0.000  0.034
    4  0.001  0.009  0.024  0.000  0.000  0.000  0.000  0.000  0.000  0.034
    5  0.001  0.007  0.008  0.000  0.000  0.000  0.000  0.000  0.000  0.016
    6  0.001  0.007  0.008  0.000  0.000  0.000  0.000  0.000  0.000  0.016
    7  0.001  0.007  0.008  0.000  0.000  0.000  0.000  0.000  0.000  0.016
    8  0.001  0.007  0.008  0.000  0.000  0.000  0.000  0.000  0.000  0.016
    9  0.001  0.009  0.024  0.000  0.000  0.000  0.000  0.000  0.000  0.034
   10  0.001  0.009  0.024  0.000  0.000  0.000  0.000  0.000  0.000  0.034
   11  0.001  0.006  0.035  0.000  0.000  0.000  0.000  0.000  0.000  0.041
   12  0.001  0.006  0.035  0.000  0.000  0.000  0.000  0.000  0.000  0.041
tot    0.011  0.087  0.264  0.000  0.000  0.000  0.000  0.000  0.000  0.362
 
band    17 # energy   -3.98767091 # occ.  2.00000000
 
ion      s     py     pz     px    dxy    dyz    dz2    dxz  x2-y2    tot
    1  0.000  0.000  0.026  0.000  0.000  0.000  0.000  0.000  0.000  0.026
    2  0.000  0.000  0.026  0.000  0.000  0.000  0.000  0.000  0.000  0.026
    3  0.002  0.009  0.007  0.000  0.000  0.000  0.000  0.000  0.000  0.017
    4  0.002  0.009  0.007  0.000  0.000  0.000  0.000  0.000  0.000  0.017
    5  0.003  0.007  0.036  0.000  0.000  0.000  0.000  0.000  0.000  0.045
    6  0.003  0.007  0.036  0.000  0.000  0.000  0.000  0.000  0.000  0.045
    7  0.003  0.007  0.036  0.000  0.000  0.000  0.000  0.000  0.000  0.045
    8  0.003  0.007  0.036  0.000  0.000  0.000  0.000  0.000  0.000  0.045
    9  0.002  0.009  0.007  0.000  0.000  0.000  0.000  0.000  0.000  0.017
   10  0.002  0.009  0.007  0.000  0.000  0.000  0.000  0.000  0.000  0.017
   11  0.000  0.000  0.026  0.000  0.000  0.000  0.000  0.000  0.000  0.026
   12  0.000  0.000  0.026  0.000  0.000  0.000  0.000  0.000  0.000  0.026
tot    0.021  0.061  0.272  0.000  0.000  0.000  0.000  0.000  0.000  0.354
 
band    18 # energy   -3.91102189 # occ.  2.00000000
 
ion      s     py     pz     px    dxy    dyz    dz2    dxz  x2-y2    tot
    1  0.041  0.003  0.004  0.000  0.000  0.000  0.000  0.000  0.000  0.049
    2  0.041  0.003  0.004  0.000  0.000  0.000  0.000  0.000  0.000  0.049
    3  0.043  0.001  0.004  0.000  0.000  0.000  0.000  0.000  0.000  0.048
    4  0.043  0.001  0.004  0.000  0.000  0.000  0.000  0.000  0.000  0.048
    5  0.060  0.003  0.006  0.000  0.000  0.000  0.000  0.000  0.000  0.069
    6  0.060  0.003  0.006  0.000  0.000  0.000  0.000  0.000  0.000  0.069
    7  0.060  0.003  0.006  0.000  0.000  0.000  0.000  0.000  0.000  0.069
    8  0.060  0.003  0.006  0.000  0.000  0.000  0.000  0.000  0.000  0.069
    9  0.043  0.001  0.004  0.000  0.000  0.000  0.000  0.000  0.000  0.048
   10  0.043  0.001  0.004  0.000  0.000  0.000  0.000  0.000  0.000  0.048
   11  0.041  0.003  0.004  0.000  0.000  0.000  0.000  0.000  0.000  0.049
   12  0.041  0.003  0.004  0.000  0.000  0.000  0.000  0.000  0.000  0.049
tot    0.579  0.027  0.059  0.000  0.000  0.000  0.000  0.000  0.000  0.665
 
band    19 # energy   -3.38640293 # occ.  2.00000000
 
ion      s     py     pz     px    dxy    dyz    dz2    dxz  x2-y2    tot
    1  0.000  0.000  0.000  0.015  0.000  0.000  0.000  0.000  0.000  0.015
    2  0.000  0.000  0.000  0.015  0.000  0.000  0.000  0.000  0.000  0.015
    3  0.000  0.000  0.000  0.022  0.000  0.000  0.000  0.000  0.000  0.022
    4  0.000  0.000  0.000  0.022  0.000  0.000  0.000  0.000  0.000  0.022
    5  0.000  0.000  0.000  0.087  0.000  0.000  0.000  0.000  0.000  0.087
    6  0.000  0.000  0.000  0.087  0.000  0.000  0.000  0.000  0.000  0.087
    7  0.000  0.000  0.000  0.087  0.000  0.000  0.000  0.000  0.000  0.087
    8  0.000  0.000  0.000  0.087  0.000  0.000  0.000  0.000  0.000  0.087
    9  0.000  0.000  0.000  0.022  0.000  0.000  0.000  0.000  0.000  0.022
   10  0.000  0.000  0.000  0.022  0.000  0.000  0.000  0.000  0.000  0.022
   11  0.000  0.000  0.000  0.015  0.000  0.000  0.000  0.000  0.000  0.015
   12  0.000  0.000  0.000  0.015  0.000  0.000  0.000  0.000  0.000  0.015
tot    0.000  0.000  0.000  0.496  0.000  0.000  0.000  0.000  0.000  0.496
 
band    20 # energy   -3.28515542 # occ.  2.00000000
 
ion      s     py     pz     px    dxy    dyz    dz2    dxz  x2-y2    tot
    1  0.000  0.000  0.000  0.060  0.000  0.000  0.000  0.000  0.000  0.060
    2  0.000  0.000  0.000  0.060  0.000  0.000  0.000  0.000  0.000  0.060
    3  0.000  0.000  0.000  0.064  0.000  0.000  0.000  0.000  0.000  0.064
    4  0.000  0.000  0.000  0.064  0.000  0.000  0.000  0.000  0.000  0.064
    5  0.000  0.000  0.000  0.000  0.000  0.000  0.000  0.000  0.000  0.000
    6  0.000  0.000  0.000  0.000  0.000  0.000  0.000  0.000  0.000  0.000
    7  0.000  0.000  0.000  0.000  0.000  0.000  0.000  0.000  0.000  0.000
    8  0.000  0.000  0.000  0.000  0.000  0.000  0.000  0.000  0.000  0.000
    9  0.000  0.000  0.000  0.064  0.000  0.000  0.000  0.000  0.000  0.064
   10  0.000  0.000  0.000  0.064  0.000  0.000  0.000  0.000  0.000  0.064
   11  0.000  0.000  0.000  0.060  0.000  0.000  0.000  0.000  0.000  0.060
   12  0.000  0.000  0.000  0.060  0.000  0.000  0.000  0.000  0.000  0.060
tot    0.000  0.000  0.000  0.498  0.000  0.000  0.000  0.000  0.000  0.498
 
band    21 # energy   -3.23540010 # occ.  2.00000000
 
ion      s     py     pz     px    dxy    dyz    dz2    dxz  x2-y2    tot
    1  0.000  0.000  0.000  0.045  0.000  0.000  0.000  0.000  0.000  0.045
    2  0.000  0.000  0.000  0.045  0.000  0.000  0.000  0.000  0.000  0.045
    3  0.000  0.000  0.000  0.042  0.000  0.000  0.000  0.000  0.000  0.042
    4  0.000  0.000  0.000  0.042  0.000  0.000  0.000  0.000  0.000  0.042
    5  0.000  0.000  0.000  0.038  0.000  0.000  0.000  0.000  0.000  0.038
    6  0.000  0.000  0.000  0.038  0.000  0.000  0.000  0.000  0.000  0.038
    7  0.000  0.000  0.000  0.038  0.000  0.000  0.000  0.000  0.000  0.038
    8  0.000  0.000  0.000  0.038  0.000  0.000  0.000  0.000  0.000  0.038
    9  0.000  0.000  0.000  0.042  0.000  0.000  0.000  0.000  0.000  0.042
   10  0.000  0.000  0.000  0.042  0.000  0.000  0.000  0.000  0.000  0.042
   11  0.000  0.000  0.000  0.045  0.000  0.000  0.000  0.000  0.000  0.045
   12  0.000  0.000  0.000  0.045  0.000  0.000  0.000  0.000  0.000  0.045
tot    0.000  0.000  0.000  0.501  0.000  0.000  0.000  0.000  0.000  0.501
 
band    22 # energy   -1.87207425 # occ.  2.00000000
 
ion      s     py     pz     px    dxy    dyz    dz2    dxz  x2-y2    tot
    1  0.000  0.000  0.029  0.000  0.000  0.000  0.000  0.000  0.000  0.029
    2  0.000  0.000  0.029  0.000  0.000  0.000  0.000  0.000  0.000  0.029
    3  0.001  0.001  0.014  0.000  0.000  0.000  0.000  0.000  0.000  0.016
    4  0.001  0.001  0.014  0.000  0.000  0.000  0.000  0.000  0.000  0.016
    5  0.000  0.003  0.053  0.000  0.000  0.000  0.000  0.000  0.000  0.057
    6  0.000  0.003  0.053  0.000  0.000  0.000  0.000  0.000  0.000  0.057
    7  0.000  0.003  0.053  0.000  0.000  0.000  0.000  0.000  0.000  0.057
    8  0.000  0.003  0.053  0.000  0.000  0.000  0.000  0.000  0.000  0.057
    9  0.001  0.001  0.014  0.000  0.000  0.000  0.000  0.000  0.000  0.016
   10  0.001  0.001  0.014  0.000  0.000  0.000  0.000  0.000  0.000  0.016
   11  0.000  0.000  0.029  0.000  0.000  0.000  0.000  0.000  0.000  0.029
   12  0.000  0.000  0.029  0.000  0.000  0.000  0.000  0.000  0.000  0.029
tot    0.004  0.018  0.384  0.000  0.000  0.000  0.000  0.000  0.000  0.406
 
band    23 # energy   -1.72890465 # occ.  2.00000000
 
ion      s     py     pz     px    dxy    dyz    dz2    dxz  x2-y2    tot
    1  0.000  0.000  0.000  0.030  0.000  0.000  0.000  0.000  0.000  0.030
    2  0.000  0.000  0.000  0.030  0.000  0.000  0.000  0.000  0.000  0.030
    3  0.000  0.000  0.000  0.021  0.000  0.000  0.000  0.000  0.000  0.021
    4  0.000  0.000  0.000  0.021  0.000  0.000  0.000  0.000  0.000  0.021
    5  0.000  0.000  0.000  0.081  0.000  0.000  0.000  0.000  0.000  0.081
    6  0.000  0.000  0.000  0.081  0.000  0.000  0.000  0.000  0.000  0.081
    7  0.000  0.000  0.000  0.081  0.000  0.000  0.000  0.000  0.000  0.081
    8  0.000  0.000  0.000  0.081  0.000  0.000  0.000  0.000  0.000  0.081
    9  0.000  0.000  0.000  0.021  0.000  0.000  0.000  0.000  0.000  0.021
   10  0.000  0.000  0.000  0.021  0.000  0.000  0.000  0.000  0.000  0.021
   11  0.000  0.000  0.000  0.030  0.000  0.000  0.000  0.000  0.000  0.030
   12  0.000  0.000  0.000  0.030  0.000  0.000  0.000  0.000  0.000  0.030
tot    0.000  0.000  0.000  0.527  0.000  0.000  0.000  0.000  0.000  0.527
 
band    24 # energy   -1.61597021 # occ.  2.00000000
 
ion      s     py     pz     px    dxy    dyz    dz2    dxz  x2-y2    tot
    1  0.000  0.007  0.042  0.000  0.000  0.000  0.000  0.000  0.000  0.049
    2  0.000  0.007  0.042  0.000  0.000  0.000  0.000  0.000  0.000  0.049
    3  0.000  0.005  0.037  0.000  0.000  0.000  0.000  0.000  0.000  0.043
    4  0.000  0.005  0.037  0.000  0.000  0.000  0.000  0.000  0.000  0.043
    5  0.002  0.001  0.002  0.000  0.000  0.000  0.000  0.000  0.000  0.006
    6  0.002  0.001  0.002  0.000  0.000  0.000  0.000  0.000  0.000  0.006
    7  0.002  0.001  0.002  0.000  0.000  0.000  0.000  0.000  0.000  0.006
    8  0.002  0.001  0.002  0.000  0.000  0.000  0.000  0.000  0.000  0.006
    9  0.000  0.005  0.037  0.000  0.000  0.000  0.000  0.000  0.000  0.043
   10  0.000  0.005  0.037  0.000  0.000  0.000  0.000  0.000  0.000  0.043
   11  0.000  0.007  0.042  0.000  0.000  0.000  0.000  0.000  0.000  0.049
   12  0.000  0.007  0.042  0.000  0.000  0.000  0.000  0.000  0.000  0.049
tot    0.011  0.052  0.326  0.000  0.000  0.000  0.000  0.000  0.000  0.389
 
band    25 # energy   -1.58194572 # occ.  2.00000000
 
ion      s     py     pz     px    dxy    dyz    dz2    dxz  x2-y2    tot
    1  0.000  0.000  0.000  0.068  0.000  0.000  0.000  0.000  0.000  0.068
    2  0.000  0.000  0.000  0.068  0.000  0.000  0.000  0.000  0.000  0.068
    3  0.000  0.000  0.000  0.065  0.000  0.000  0.000  0.000  0.000  0.065
    4  0.000  0.000  0.000  0.065  0.000  0.000  0.000  0.000  0.000  0.065
    5  0.000  0.000  0.000  0.000  0.000  0.000  0.000  0.000  0.000  0.000
    6  0.000  0.000  0.000  0.000  0.000  0.000  0.000  0.000  0.000  0.000
    7  0.000  0.000  0.000  0.000  0.000  0.000  0.000  0.000  0.000  0.000
    8  0.000  0.000  0.000  0.000  0.000  0.000  0.000  0.000  0.000  0.000
    9  0.000  0.000  0.000  0.065  0.000  0.000  0.000  0.000  0.000  0.065
   10  0.000  0.000  0.000  0.065  0.000  0.000  0.000  0.000  0.000  0.065
   11  0.000  0.000  0.000  0.068  0.000  0.000  0.000  0.000  0.000  0.068
   12  0.000  0.000  0.000  0.068  0.000  0.000  0.000  0.000  0.000  0.068
tot    0.000  0.000  0.000  0.534  0.000  0.000  0.000  0.000  0.000  0.534
 
band    26 # energy   -1.49686828 # occ.  2.00000000
 
ion      s     py     pz     px    dxy    dyz    dz2    dxz  x2-y2    tot
    1  0.000  0.000  0.000  0.040  0.000  0.000  0.000  0.000  0.000  0.040
    2  0.000  0.000  0.000  0.040  0.000  0.000  0.000  0.000  0.000  0.040
    3  0.000  0.000  0.000  0.044  0.000  0.000  0.000  0.000  0.000  0.044
    4  0.000  0.000  0.000  0.044  0.000  0.000  0.000  0.000  0.000  0.044
    5  0.000  0.000  0.000  0.051  0.000  0.000  0.000  0.000  0.000  0.051
    6  0.000  0.000  0.000  0.051  0.000  0.000  0.000  0.000  0.000  0.051
    7  0.000  0.000  0.000  0.051  0.000  0.000  0.000  0.000  0.000  0.051
    8  0.000  0.000  0.000  0.051  0.000  0.000  0.000  0.000  0.000  0.051
    9  0.000  0.000  0.000  0.044  0.000  0.000  0.000  0.000  0.000  0.044
   10  0.000  0.000  0.000  0.044  0.000  0.000  0.000  0.000  0.000  0.044
   11  0.000  0.000  0.000  0.040  0.000  0.000  0.000  0.000  0.000  0.040
   12  0.000  0.000  0.000  0.040  0.000  0.000  0.000  0.000  0.000  0.040
tot    0.000  0.000  0.000  0.540  0.000  0.000  0.000  0.000  0.000  0.540
 
band    27 # energy   -1.09909488 # occ.  2.00000000
 
ion      s     py     pz     px    dxy    dyz    dz2    dxz  x2-y2    tot
    1  0.000  0.013  0.014  0.000  0.000  0.000  0.000  0.000  0.000  0.027
    2  0.000  0.013  0.014  0.000  0.000  0.000  0.000  0.000  0.000  0.027
    3  0.003  0.003  0.032  0.000  0.000  0.000  0.000  0.000  0.000  0.038
    4  0.003  0.003  0.032  0.000  0.000  0.000  0.000  0.000  0.000  0.038
    5  0.001  0.012  0.023  0.000  0.000  0.000  0.000  0.000  0.000  0.036
    6  0.001  0.012  0.023  0.000  0.000  0.000  0.000  0.000  0.000  0.036
    7  0.001  0.012  0.023  0.000  0.000  0.000  0.000  0.000  0.000  0.036
    8  0.001  0.012  0.023  0.000  0.000  0.000  0.000  0.000  0.000  0.036