<?xml version="1.0" encoding="ISO-8859-1"?>
<modeling>
 <generator>
  <i name="program" type="string">vasp </i>
  <i name="version" type="string">5.4.4.18Apr17-6-g9f103f2a35  </i>
  <i name="subversion" type="string">(build Jun 20 2017 18:00:50) complex            parallel </i>
  <i name="platform" type="string">LinuxIFC </i>
  <i name="date" type="string">2018 03 16 </i>
  <i name="time" type="string">15:58:09 </i>
 </generator>
 <incar>
  <i type="string" name="SYSTEM"> Generic Input</i>
  <i type="int" name="ISTART">     1</i>
  <i type="string" name="PREC">normal    ! precision level</i>
  <i type="int" name="IALGO">    53</i>
  <i type="string" name="ALGO"> Normal    ! SCF minimisation algorithm</i>
  <i type="int" name="INIWAV">     1</i>
  <i type="int" name="NELM">   200</i>
  <i type="int" name="NELMIN">     2</i>
  <i type="int" name="IBRION">     2</i>
  <i name="EDIFF">      0.00001000</i>
  <i name="EDIFFG">     -0.02000000</i>
  <i type="int" name="NSW">     0</i>
  <i type="int" name="ISIF">     3</i>
  <i type="int" name="IWAVPR">    11</i>
  <i type="int" name="NBLOCK">     1</i>
  <i type="int" name="KBLOCK">    40</i>
  <i name="ENCUT">    400.00000000</i>
  <i type="int" name="NEDOS">  2000</i>
  <i type="int" name="ISMEAR">     0</i>
  <i name="SIGMA">      0.01000000</i>
  <i type="int" name="NWRITE">     2</i>
  <i type="logical" name="LVHAR"> T  </i>
  <i type="int" name="LORBIT">    11</i>
  <i type="logical" name="LASPH"> T  </i>
  <i type="int" name="ICORELEVEL">     1</i>
  <v type="int" name="KPOINT_BSE">    -1     0     0     0</v>
  <i type="int" name="NELM">   200</i>
  <i type="string" name="GGA"> PE        ! PBEsol exchange-correlation</i>
  <i type="logical" name="LASPH"> T  </i>
 </incar>
 <structure name="primitive_cell" >
  <crystal>
   <varray name="basis" >
    <v>       3.34288600       0.00000000       0.00000000 </v>
    <v>       0.00000000      32.60240900       0.00000000 </v>
    <v>       0.00000000       0.00000000       4.37483100 </v>
   </varray>
   <i name="volume">    476.79592902 </i>
   <varray name="rec_basis" >
    <v>       0.29914272       0.00000000       0.00000000 </v>
    <v>       0.00000000       0.03067258       0.00000000 </v>
    <v>       0.00000000       0.00000000       0.22858026 </v>
   </varray>
  </crystal>
  <varray name="positions" >
   <v>       0.00000000       0.30672600      -0.08107600 </v>
   <v>      -0.50000000       0.30672600      -0.41892400 </v>
   <v>       0.00000000       0.37246700       0.08107600 </v>
   <v>      -0.50000000       0.37246700       0.41892400 </v>
   <v>       0.00000000       0.46712900      -0.41892400 </v>
   <v>      -0.50000000       0.46712900      -0.08107600 </v>
   <v>      -0.50000000      -0.46712900       0.08107600 </v>
   <v>       0.00000000      -0.46712900       0.41892400 </v>
   <v>       0.00000000      -0.37246700      -0.08107600 </v>
   <v>      -0.50000000      -0.37246700      -0.41892400 </v>
   <v>       0.00000000      -0.30672600       0.08107600 </v>
   <v>      -0.50000000      -0.30672600       0.41892400 </v>
  </varray>
 </structure>
 <varray name="primitive_index" >
  <v type="int" >        1 </v>
  <v type="int" >        2 </v>
  <v type="int" >        3 </v>
  <v type="int" >        4 </v>
  <v type="int" >        6 </v>
  <v type="int" >        5 </v>
  <v type="int" >        7 </v>
  <v type="int" >        8 </v>
  <v type="int" >        9 </v>
  <v type="int" >       10 </v>
  <v type="int" >       11 </v>
  <v type="int" >       12 </v>
 </varray>
 <kpoints>
  <generation param="Gamma">
   <v type="int" name="divisions">       4        1        3 </v>
   <v name="usershift">      0.00000000       0.00000000       0.00000000 </v>
   <v name="genvec1">      0.25000000       0.00000000       0.00000000 </v>
   <v name="genvec2">      0.00000000       1.00000000       0.00000000 </v>
   <v name="genvec3">      0.00000000       0.00000000       0.33333333 </v>
   <v name="shift">      0.00000000       0.00000000       0.00000000 </v>
  </generation>
  <varray name="kpointlist" >
   <v>       0.00000000       0.00000000       0.00000000 </v>
   <v>       0.25000000       0.00000000       0.00000000 </v>
   <v>       0.50000000       0.00000000       0.00000000 </v>
   <v>       0.00000000       0.00000000       0.33333333 </v>
   <v>       0.25000000       0.00000000       0.33333333 </v>
   <v>       0.50000000       0.00000000       0.33333333 </v>
  </varray>
  <varray name="weights" >
   <v>       0.08333333 </v>
   <v>       0.16666667 </v>
   <v>       0.08333333 </v>
   <v>       0.16666667 </v>
   <v>       0.33333333 </v>
   <v>       0.16666667 </v>
  </varray>
 </kpoints>
 <parameters>
  <separator name="general" >
   <i type="string" name="SYSTEM">Generic Input</i>
   <i type="logical" name="LCOMPAT"> F  </i>
  </separator>
  <separator name="electronic" >
   <i type="string" name="PREC">normal</i>
   <i name="ENMAX">    400.00000000</i>
   <i name="ENAUG">    342.92400000</i>
   <i name="EDIFF">      0.00001000</i>
   <i type="int" name="IALGO">    38</i>
   <i type="int" name="IWAVPR">    11</i>
   <i type="int" name="NBANDS">    40</i>
   <i name="NELECT">     60.00000000</i>
   <i type="int" name="TURBO">     0</i>
   <i type="int" name="IRESTART">     0</i>
   <i type="int" name="NREBOOT">     0</i>
   <i type="int" name="NMIN">     0</i>
   <i name="EREF">      0.00000000</i>
   <separator name="electronic smearing" >
    <i type="int" name="ISMEAR">     0</i>
    <i name="SIGMA">      0.01000000</i>
    <i name="KSPACING">      0.50000000</i>
    <i type="logical" name="KGAMMA"> T  </i>
   </separator>
   <separator name="electronic projectors" >
    <i type="logical" name="LREAL"> F  </i>
    <v name="ROPT">      0.00000000</v>
    <i type="int" name="LMAXPAW">  -100</i>
    <i type="int" name="LMAXMIX">     2</i>
    <i type="logical" name="NLSPLINE"> F  </i>
   </separator>
   <separator name="electronic startup" >
    <i type="int" name="ISTART">     0</i>
    <i type="int" name="ICHARG">     2</i>
    <i type="int" name="INIWAV">     1</i>
   </separator>
   <separator name="electronic spin" >
    <i type="int" name="ISPIN">     1</i>
    <i type="logical" name="LNONCOLLINEAR"> F  </i>
    <v name="MAGMOM">      1.00000000      1.00000000      1.00000000      1.00000000      1.00000000      1.00000000      1.00000000      1.00000000      1.00000000      1.00000000      1.00000000      1.00000000</v>
    <i name="NUPDOWN">     -1.00000000</i>
    <i type="logical" name="LSORBIT"> F  </i>
    <v name="SAXIS">      0.00000000      0.00000000      1.00000000</v>
    <i type="logical" name="LSPIRAL"> F  </i>
    <v name="QSPIRAL">      0.00000000      0.00000000      0.00000000</v>
    <i type="logical" name="LZEROZ"> F  </i>
   </separator>
   <separator name="electronic exchange-correlation" >
    <i type="logical" name="LASPH"> T  </i>
    <i type="logical" name="LMETAGGA"> F  </i>
   </separator>
   <separator name="electronic convergence" >
    <i type="int" name="NELM">   200</i>
    <i type="int" name="NELMDL">     0</i>
    <i type="int" name="NELMIN">     2</i>
    <i name="ENINI">    400.00000000</i>
    <separator name="electronic convergence detail" >
     <i type="logical" name="LDIAG"> T  </i>
     <i type="logical" name="LSUBROT"> F  </i>
     <i name="WEIMIN">      0.00000000</i>
     <i name="EBREAK">      0.00000006</i>
     <i name="DEPER">      0.30000000</i>
     <i type="int" name="NRMM">     4</i>
     <i name="TIME">      0.40000000</i>
    </separator>
   </separator>
   <separator name="electronic mixer" >
    <i name="AMIX">      0.40000000</i>
    <i name="BMIX">      1.00000000</i>
    <i name="AMIN">      0.10000000</i>
    <i name="AMIX_MAG">      1.60000000</i>
    <i name="BMIX_MAG">      1.00000000</i>
    <separator name="electronic mixer details" >
     <i type="int" name="IMIX">     4</i>
     <i type="logical" name="MIXFIRST"> F  </i>
     <i type="int" name="MAXMIX">   -45</i>
     <i name="WC">    100.00000000</i>
     <i type="int" name="INIMIX">     1</i>
     <i type="int" name="MIXPRE">     1</i>
     <i type="int" name="MREMOVE">     5</i>
    </separator>
   </separator>
   <separator name="electronic dipolcorrection" >
    <i type="logical" name="LDIPOL"> F  </i>
    <i type="logical" name="LMONO"> F  </i>
    <i type="int" name="IDIPOL">     0</i>
    <i name="EPSILON">      1.00000000</i>
    <v name="DIPOL">   -100.00000000   -100.00000000   -100.00000000</v>
    <i name="EFIELD">      0.00000000</i>
   </separator>
  </separator>
  <separator name="grids" >
   <i type="int" name="NGX">    16</i>
   <i type="int" name="NGY">   160</i>
   <i type="int" name="NGZ">    24</i>
   <i type="int" name="NGXF">    32</i>
   <i type="int" name="NGYF">   320</i>
   <i type="int" name="NGZF">    48</i>
   <i type="logical" name="ADDGRID"> F  </i>
  </separator>
  <separator name="ionic" >
   <i type="int" name="NSW">     0</i>
   <i type="int" name="IBRION">    -1</i>
   <i type="int" name="MDALGO">     0</i>
   <i type="int" name="ISIF">     3</i>
   <i name="PSTRESS">      0.00000000</i>
   <i name="EDIFFG">     -0.02000000</i>
   <i type="int" name="NFREE">     1</i>
   <i name="POTIM">      0.50000000</i>
   <i name="SMASS">     -3.00000000</i>
   <i name="SCALEE">      1.00000000</i>
  </separator>
  <separator name="ionic md" >
   <i name="TEBEG">      0.00010000</i>
   <i name="TEEND">      0.00010000</i>
   <i type="int" name="NBLOCK">     1</i>
   <i type="int" name="KBLOCK">     1</i>
   <i type="int" name="NPACO">   256</i>
   <i name="APACO">     16.00000000</i>
  </separator>
  <separator name="symmetry" >
   <i type="int" name="ISYM">     2</i>
   <i name="SYMPREC">      0.00001000</i>
  </separator>
  <separator name="dos" >
   <i type="int" name="LORBIT">    11</i>
   <v name="RWIGS">     -1.00000000</v>
   <i type="int" name="NEDOS">  2000</i>
   <i name="EMIN">     10.00000000</i>
   <i name="EMAX">    -10.00000000</i>
   <i name="EFERMI">      0.00000000</i>
  </separator>
  <separator name="writing" >
   <i type="int" name="NWRITE">     2</i>
   <i type="logical" name="LWAVE"> T  </i>
   <i type="logical" name="LDOWNSAMPLE"> F  </i>
   <i type="logical" name="LCHARG"> T  </i>
   <i type="logical" name="LPARD"> F  </i>
   <i type="logical" name="LVTOT"> F  </i>
   <i type="logical" name="LVHAR"> T  </i>
   <i type="logical" name="LELF"> F  </i>
   <i type="logical" name="LOPTICS"> F  </i>
   <v name="STM">      0.00000000      0.00000000      0.00000000      0.00000000      0.00000000      0.00000000      0.00000000</v>
  </separator>
  <separator name="performance" >
   <i type="int" name="NPAR">     4</i>
   <i type="int" name="NSIM">     4</i>
   <i type="int" name="NBLK">    -1</i>
   <i type="logical" name="LPLANE"> T  </i>
   <i type="logical" name="LSCALAPACK"> T  </i>
   <i type="logical" name="LSCAAWARE"> F  </i>
   <i type="logical" name="LSCALU"> F  </i>
   <i type="logical" name="LASYNC"> F  </i>
   <i type="logical" name="LORBITALREAL"> F  </i>
  </separator>
  <separator name="miscellaneous" >
   <i type="int" name="IDIOT">     3</i>
   <i type="int" name="ISPECIAL">     0</i>
   <i type="logical" name="LMUSIC"> F  </i>
   <v name="POMASS">     30.97400000</v>
   <v name="DARWINR">      0.00000000</v>
   <v name="DARWINV">      1.00000000</v>
   <i type="logical" name="LCORR"> T  </i>
  </separator>
  <i type="logical" name="GGA_COMPAT"> T  </i>
  <i type="logical" name="LBERRY"> F  </i>
  <i type="int" name="ICORELEVEL">     1</i>
  <i type="int" name="CLNT">     1</i>
  <i type="int" name="CLN">     1</i>
  <i type="int" name="CLL">     0</i>
  <i name="CLZ">      0.00000000</i>
  <i type="logical" name="LDAU"> F  </i>
  <i type="int" name="I_CONSTRAINED_M">     0</i>
  <separator name="electronic exchange-correlation" >
   <i type="string" name="GGA">PE</i>
   <i type="int" name="VOSKOWN">     0</i>
   <i type="logical" name="LHFCALC"> F  </i>
   <i type="string" name="PRECFOCK"></i>
   <i type="logical" name="LSYMGRAD"> F  </i>
   <i type="logical" name="LHFONE"> F  </i>
   <i type="logical" name="LRHFCALC"> F  </i>
   <i type="logical" name="LTHOMAS"> F  </i>
   <i type="logical" name="LMODELHF"> F  </i>
   <i name="ENCUT4O">     -1.00000000</i>
   <i type="int" name="EXXOEP">     0</i>
   <i type="int" name="FOURORBIT">     0</i>
   <i name="AEXX">      0.00000000</i>
   <i name="HFALPHA">      0.00000000</i>
   <i name="MCALPHA">      0.00000000</i>
   <i name="ALDAX">      1.00000000</i>
   <i name="AGGAX">      1.00000000</i>
   <i name="ALDAC">      1.00000000</i>
   <i name="AGGAC">      1.00000000</i>
   <i type="int" name="NKREDX">     1</i>
   <i type="int" name="NKREDY">     1</i>
   <i type="int" name="NKREDZ">     1</i>
   <i type="logical" name="SHIFTRED"> F  </i>
   <i type="logical" name="ODDONLY"> F  </i>
   <i type="logical" name="EVENONLY"> F  </i>
   <i type="int" name="LMAXFOCK">     0</i>
   <i type="int" name="NMAXFOCKAE">     0</i>
   <i type="logical" name="LFOCKAEDFT"> F  </i>
   <i name="HFSCREEN">      0.00000000</i>
   <i name="HFSCREENC">      0.00000000</i>
   <i type="int" name="NBANDSGWLOW">     0</i>
  </separator>
  <separator name="vdW DFT" >
   <i type="logical" name="LUSE_VDW"> F  </i>
   <i name="Zab_VDW">     -0.84910000</i>
   <i name="PARAM1">      0.12340000</i>
   <i name="PARAM2">      1.00000000</i>
   <i name="PARAM3">      0.00000000</i>
  </separator>
  <separator name="model GW" >
   <i type="int" name="MODEL_GW">     0</i>
   <i name="MODEL_EPS0">     23.83979645</i>
   <i name="MODEL_ALPHA">      1.00000000</i>
  </separator>
  <separator name="linear response parameters" >
   <i type="logical" name="LEPSILON"> F  </i>
   <i type="logical" name="LRPA"> F  </i>
   <i type="logical" name="LNABLA"> F  </i>
   <i type="logical" name="LVEL"> F  </i>
   <i type="int" name="KINTER">     0</i>
   <i name="CSHIFT">      0.10000000</i>
   <i name="OMEGAMAX">     -1.00000000</i>
   <i name="DEG_THRESHOLD">      0.00200000</i>
   <i name="RTIME">     -0.10000000</i>
   <i name="WPLASMAI">      0.00000000</i>
   <v name="DFIELD">      0.00000000      0.00000000      0.00000000</v>
   <v name="WPLASMA">      0.00000000      0.00000000      0.00000000      0.00000000      0.00000000      0.00000000      0.00000000      0.00000000      0.00000000</v>
  </separator>
  <separator name="orbital magnetization" >
   <i type="logical" name="NUCIND"> F  </i>
   <v name="MAGPOS">      0.00000000      0.00000000      0.00000000</v>
   <i type="logical" name="LNICSALL"> T  </i>
   <i type="logical" name="ORBITALMAG"> F  </i>
   <i type="logical" name="LMAGBLOCH"> F  </i>
   <i type="logical" name="LCHIMAG"> F  </i>
   <i type="logical" name="LGAUGE"> T  </i>
   <i type="int" name="MAGATOM">     0</i>
   <v name="MAGDIPOL">      0.00000000      0.00000000      0.00000000</v>
   <v name="AVECCONST">      0.00000000      0.00000000      0.00000000</v>
  </separator>
  <separator name="response functions" >
   <i type="logical" name="LADDER"> F  </i>
   <i type="logical" name="LRPAFORCE"> F  </i>
   <i type="logical" name="LFXC"> F  </i>
   <i type="logical" name="LHARTREE"> T  </i>
   <i type="int" name="IBSE">     0</i>
   <v type="int" name="KPOINT">    -1     0     0     0</v>
   <i type="logical" name="LTCTE"> F  </i>
   <i type="logical" name="LTETE"> F  </i>
   <i type="logical" name="LTRIPLET"> F  </i>
   <i type="logical" name="LFXCEPS"> F  </i>
   <i type="logical" name="LFXHEG"> F  </i>
   <i type="int" name="NATURALO">     2</i>
   <i type="logical" name="L2ORDER"> F  </i>
   <i type="logical" name="LMP2LT"> F  </i>
   <i type="logical" name="LUSEW"> F  </i>
   <i name="ENCUTGW">     -2.00000000</i>
   <i name="ENCUTGWSOFT">     -2.00000000</i>
   <i name="ENCUTLF">     -1.00000000</i>
   <i type="int" name="LMAXMP2">    -1</i>
   <i name="SCISSOR">      0.00000000</i>
   <i type="int" name="NOMEGA">     0</i>
   <i type="int" name="NOMEGAR">     0</i>
   <i type="int" name="NBANDSGW">    -1</i>
   <i type="int" name="NBANDSO">    -1</i>
   <i type="int" name="NBANDSV">    -1</i>
   <i type="int" name="NELM">   200</i>
   <i type="int" name="NELMHF">     1</i>
   <i type="int" name="DIM">     3</i>
   <i type="int" name="ANTIRES">     0</i>
   <i name="OMEGAMAX">    -30.00000000</i>
   <i name="OMEGAMIN">    -30.00000000</i>
   <i name="OMEGATL">   -200.00000000</i>
   <i type="int" name="OMEGAGRID">   140</i>
   <i name="CSHIFT">     -0.10000000</i>
   <i type="logical" name="SELFENERGY"> F  </i>
   <i type="logical" name="LSPECTRAL"> F  </i>
   <i type="logical" name="LSPECTRALGW"> F  </i>
   <i type="logical" name="LSINGLES"> F  </i>
   <i type="logical" name="LFERMIGW"> F  </i>
   <i type="logical" name="ODDONLYGW"> F  </i>
   <i type="logical" name="EVENONLYGW"> F  </i>
   <i type="int" name="NKREDLFX">     1</i>
   <i type="int" name="NKREDLFY">     1</i>
   <i type="int" name="NKREDLFZ">     1</i>
   <i type="int" name="MAXMEM">  2800</i>
   <i type="int" name="TELESCOPE">     0</i>
   <i type="int" name="TAUPAR">     1</i>
   <i type="int" name="OMEGAPAR">    -1</i>
   <i name="LAMBDA">      1.00000000</i>
  </separator>
  <separator name="External order field" >
   <i name="OFIELD_KAPPA">      0.00000000</i>
   <v name="OFIELD_K">      0.00000000      0.00000000      0.00000000</v>
   <i name="OFIELD_Q6_NEAR">      0.00000000</i>
   <i name="OFIELD_Q6_FAR">      0.00000000</i>
   <i name="OFIELD_A">      0.00000000</i>
  </separator>
 </parameters>
 <atominfo>
  <atoms>      12 </atoms>
  <types>       1 </types>
  <array name="atoms" >
   <dimension dim="1">ion</dimension>
   <field type="string">element</field>
   <field type="int">atomtype</field>
   <set>
    <rc><c>P </c><c>   1</c></rc>
    <rc><c>P </c><c>   1</c></rc>
    <rc><c>P </c><c>   1</c></rc>
    <rc><c>P </c><c>   1</c></rc>
    <rc><c>P </c><c>   1</c></rc>
    <rc><c>P </c><c>   1</c></rc>
    <rc><c>P </c><c>   1</c></rc>
    <rc><c>P </c><c>   1</c></rc>
    <rc><c>P </c><c>   1</c></rc>
    <rc><c>P </c><c>   1</c></rc>
    <rc><c>P </c><c>   1</c></rc>
    <rc><c>P </c><c>   1</c></rc>
   </set>
  </array>
  <array name="atomtypes" >
   <dimension dim="1">type</dimension>
   <field type="int">atomspertype</field>
   <field type="string">element</field>
   <field>mass</field>
   <field>valence</field>
   <field type="string">pseudopotential</field>
   <set>
    <rc><c>  12</c><c>P </c><c>     30.97400000</c><c>      5.00000000</c><c>  PAW_PBE P 06Sep2000                   </c></rc>
   </set>
  </array>
 </atominfo>
 <structure name="initialpos" >
  <crystal>
   <varray name="basis" >
    <v>       3.34288600       0.00000000       0.00000000 </v>
    <v>       0.00000000      32.60240900       0.00000000 </v>
    <v>       0.00000000       0.00000000       4.37483100 </v>
   </varray>
   <i name="volume">    476.79592902 </i>
   <varray name="rec_basis" >
    <v>       0.29914272       0.00000000       0.00000000 </v>
    <v>       0.00000000       0.03067258       0.00000000 </v>
    <v>       0.00000000       0.00000000       0.22858026 </v>
   </varray>
  </crystal>
  <varray name="positions" >
   <v>       0.00000000       0.30672600       0.91892400 </v>
   <v>       0.50000000       0.30672600       0.58107600 </v>
   <v>       0.00000000       0.37246700       0.08107600 </v>
   <v>       0.50000000       0.37246700       0.41892400 </v>
   <v>       0.50000000       0.46712900       0.91892400 </v>
   <v>       0.00000000       0.46712900       0.58107600 </v>
   <v>       0.50000000       0.53287100       0.08107600 </v>
   <v>       0.00000000       0.53287100       0.41892400 </v>
   <v>       0.00000000       0.62753300       0.91892400 </v>
   <v>       0.50000000       0.62753300       0.58107600 </v>
   <v>       0.00000000       0.69327400       0.08107600 </v>
   <v>       0.50000000       0.69327400       0.41892400 </v>
  </varray>
 </structure>
 <calculation>
  <scstep>
   <time name="dav">    0.26    0.26</time>
   <time name="total">    0.36    0.36</time>
   <energy>
    <i name="alphaZ">     30.28014394 </i>
    <i name="ewald">  14973.24208224 </i>
    <i name="hartreedc"> -16928.93300519 </i>
    <i name="XCdc">     40.33410248 </i>
    <i name="pawpsdc">   1677.12035881 </i>
    <i name="pawaedc">  -1579.18296132 </i>
    <i name="eentropy">     -0.00149801 </i>
    <i name="bandstr">     11.39448980 </i>
    <i name="atom">   2112.48864025 </i>
    <i name="e_fr_energy">    336.74235299 </i>
    <i name="e_wo_entrp">    336.74385100 </i>
    <i name="e_0_energy">    336.74310200 </i>
   </energy>
  </scstep>
  <scstep>
   <time name="dav">    0.33    0.33</time>
   <time name="total">    0.33    0.33</time>
   <energy>
    <i name="e_fr_energy">    -25.72519784 </i>
    <i name="e_wo_entrp">    -25.72519784 </i>
    <i name="e_0_energy">    -25.72519784 </i>
   </energy>
  </scstep>
  <scstep>
   <time name="dav">    0.29    0.29</time>
   <time name="total">    0.29    0.29</time>
   <energy>
    <i name="e_fr_energy">    -62.98605864 </i>
    <i name="e_wo_entrp">    -62.98605864 </i>
    <i name="e_0_energy">    -62.98605864 </i>
   </energy>
  </scstep>
  <scstep>
   <time name="dav">    0.33    0.33</time>
   <time name="total">    0.33    0.33</time>
   <energy>
    <i name="e_fr_energy">    -64.47188437 </i>
    <i name="e_wo_entrp">    -64.47188437 </i>
    <i name="e_0_energy">    -64.47188437 </i>
   </energy>
  </scstep>
  <scstep>
   <time name="dav">    0.34    0.35</time>
   <time name="total">    0.36    0.37</time>
   <energy>
    <i name="e_fr_energy">    -64.51855407 </i>
    <i name="e_wo_entrp">    -64.51855407 </i>
    <i name="e_0_energy">    -64.51855407 </i>
   </energy>
  </scstep>
  <scstep>
   <time name="dav">    0.30    0.30</time>
   <time name="total">    0.39    0.40</time>
   <energy>
    <i name="e_fr_energy">    -64.18365276 </i>
    <i name="e_wo_entrp">    -64.18365276 </i>
    <i name="e_0_energy">    -64.18365276 </i>
   </energy>
  </scstep>
  <scstep>
   <time name="dav">    0.32    0.32</time>
   <time name="total">    0.42    0.42</time>
   <energy>
    <i name="e_fr_energy">    -64.03015587 </i>
    <i name="e_wo_entrp">    -64.03015435 </i>
    <i name="e_0_energy">    -64.03015511 </i>
   </energy>
  </scstep>
  <scstep>
   <time name="dav">    0.30    0.30</time>
   <time name="total">    0.39    0.40</time>
   <energy>
    <i name="e_fr_energy">    -64.02989295 </i>
    <i name="e_wo_entrp">    -64.02989264 </i>
    <i name="e_0_energy">    -64.02989279 </i>
   </energy>
  </scstep>
  <scstep>
   <time name="dav">    0.33    0.33</time>
   <time name="total">    0.43    0.43</time>
   <energy>
    <i name="e_fr_energy">    -64.02988949 </i>
    <i name="e_wo_entrp">    -64.02988915 </i>
    <i name="e_0_energy">    -64.02988932 </i>
   </energy>
  </scstep>
  <scstep>
   <time name="dav">    0.30    0.30</time>
   <time name="total">    0.40    0.40</time>
   <energy>
    <i name="e_fr_energy">    -64.02969331 </i>
    <i name="e_wo_entrp">    -64.02969309 </i>
    <i name="e_0_energy">    -64.02969320 </i>
   </energy>
  </scstep>
  <scstep>
   <time name="dav">    0.30    0.30</time>
   <time name="total">    0.40    0.40</time>
   <energy>
    <i name="e_fr_energy">    -64.02945755 </i>
    <i name="e_wo_entrp">    -64.02945729 </i>
    <i name="e_0_energy">    -64.02945742 </i>
   </energy>
  </scstep>
  <scstep>
   <time name="dav">    0.29    0.29</time>
   <time name="total">    0.38    0.39</time>
   <energy>
    <i name="e_fr_energy">    -64.02953674 </i>
    <i name="e_wo_entrp">    -64.02953646 </i>
    <i name="e_0_energy">    -64.02953660 </i>
   </energy>
  </scstep>
  <scstep>
   <time name="dav">    0.31    0.31</time>
   <time name="total">    0.40    0.41</time>
   <energy>
    <i name="e_fr_energy">    -64.02976435 </i>
    <i name="e_wo_entrp">    -64.02976402 </i>
    <i name="e_0_energy">    -64.02976418 </i>
   </energy>
  </scstep>
  <scstep>
   <time name="dav">    0.25    0.25</time>
   <time name="total">    0.35    0.35</time>
   <energy>
    <i name="e_fr_energy">    -64.02990087 </i>
    <i name="e_wo_entrp">    -64.02990052 </i>
    <i name="e_0_energy">    -64.02990069 </i>
   </energy>
  </scstep>
  <scstep>
   <time name="dav">    0.22    0.22</time>
   <time name="total">    0.32    0.32</time>
   <energy>
    <i name="e_fr_energy">    -64.02992828 </i>
    <i name="e_wo_entrp">    -64.02992793 </i>
    <i name="e_0_energy">    -64.02992810 </i>
   </energy>
  </scstep>
  <scstep>
   <time name="dav">    0.25    0.25</time>
   <time name="total">    0.35    0.35</time>
   <energy>
    <i name="e_fr_energy">    -64.03017577 </i>
    <i name="e_wo_entrp">    -64.03017541 </i>
    <i name="e_0_energy">    -64.03017559 </i>
   </energy>
  </scstep>
  <scstep>
   <time name="dav">    0.24    0.24</time>
   <time name="total">    0.34    0.34</time>
   <energy>
    <i name="e_fr_energy">    -64.03021176 </i>
    <i name="e_wo_entrp">    -64.03021140 </i>
    <i name="e_0_energy">    -64.03021158 </i>
   </energy>
  </scstep>
  <scstep>
   <time name="dav">    0.22    0.22</time>
   <time name="total">    0.31    0.32</time>
   <energy>
    <i name="e_fr_energy">    -64.03022195 </i>
    <i name="e_wo_entrp">    -64.03022158 </i>
    <i name="e_0_energy">    -64.03022177 </i>
   </energy>
  </scstep>
  <scstep>
   <time name="dav">    0.23    0.23</time>
   <time name="total">    0.33    0.33</time>
   <energy>
    <i name="e_fr_energy">    -64.03027034 </i>
    <i name="e_wo_entrp">    -64.03026998 </i>
    <i name="e_0_energy">    -64.03027016 </i>
   </energy>
  </scstep>
  <scstep>
   <time name="dav">    0.21    0.21</time>
   <time name="total">    0.37    0.37</time>
   <energy>
    <i name="alphaZ">     30.28014394 </i>
    <i name="ewald">  14973.24208224 </i>
    <i name="hartreedc"> -16968.68731589 </i>
    <i name="XCdc">     43.18999207 </i>
    <i name="pawpsdc">   6286.88999601 </i>
    <i name="pawaedc">  -6189.89003119 </i>
    <i name="eentropy">     -0.00000036 </i>
    <i name="bandstr">   -351.54378138 </i>
    <i name="atom">   2112.48864025 </i>
    <i name="e_fr_energy">    -64.03027433 </i>
    <i name="e_wo_entrp">    -64.03027396 </i>
    <i name="e_0_energy">    -64.03027414 </i>
   </energy>
  </scstep>
  <structure>
   <crystal>
    <varray name="basis" >
     <v>       3.34288600       0.00000000       0.00000000 </v>
     <v>       0.00000000      32.60240900       0.00000000 </v>
     <v>       0.00000000       0.00000000       4.37483100 </v>
    </varray>
    <i name="volume">    476.79592902 </i>
    <varray name="rec_basis" >
     <v>       0.29914272       0.00000000       0.00000000 </v>
     <v>       0.00000000       0.03067258       0.00000000 </v>
     <v>       0.00000000       0.00000000       0.22858026 </v>
    </varray>
   </crystal>
   <varray name="positions" >
    <v>       0.00000000       0.30672600       0.91892400 </v>
    <v>       0.50000000       0.30672600       0.58107600 </v>
    <v>       0.00000000       0.37246700       0.08107600 </v>
    <v>       0.50000000       0.37246700       0.41892400 </v>
    <v>       0.50000000       0.46712900       0.91892400 </v>
    <v>       0.00000000       0.46712900       0.58107600 </v>
    <v>       0.50000000       0.53287100       0.08107600 </v>
    <v>       0.00000000       0.53287100       0.41892400 </v>
    <v>       0.00000000       0.62753300       0.91892400 </v>
    <v>       0.50000000       0.62753300       0.58107600 </v>
    <v>       0.00000000       0.69327400       0.08107600 </v>
    <v>       0.50000000       0.69327400       0.41892400 </v>
   </varray>
  </structure>
  <varray name="forces" >
   <v>      -0.00000000       0.12228576      -0.06980377 </v>
   <v>       0.00000000       0.12228576       0.06980377 </v>
   <v>      -0.00000000      -0.10944659      -0.00940044 </v>
   <v>       0.00000000      -0.10944659       0.00940044 </v>
   <v>       0.00000000       0.05613595      -0.02752167 </v>
   <v>       0.00000000       0.05613595       0.02752167 </v>
   <v>       0.00000000      -0.05613595       0.02752167 </v>
   <v>       0.00000000      -0.05613595      -0.02752167 </v>
   <v>       0.00000000       0.10944659       0.00940044 </v>
   <v>      -0.00000000       0.10944659      -0.00940044 </v>
   <v>       0.00000000      -0.12228576       0.06980377 </v>
   <v>      -0.00000000      -0.12228576      -0.06980377 </v>
  </varray>
  <varray name="stress" >
   <v>       5.74091180       0.00000000       0.00000000 </v>
   <v>       0.00000000      -5.04935210       0.00000000 </v>
   <v>       0.00000000       0.00000000       3.20385875 </v>
  </varray>
  <energy>
   <i name="e_fr_energy">    -66.20421385 </i>
   <i name="e_wo_entrp">    -66.20421367 </i>
   <i name="e_0_energy">     -0.00000036 </i>
  </energy>
  <time name="totalsc">    8.51    8.56</time>
  <eigenvalues>
   <array>
    <dimension dim="1">band</dimension>
    <dimension dim="2">kpoint</dimension>
    <dimension dim="3">spin</dimension>
    <field>eigene</field>
    <field>occ</field>
    <set>
     <set comment="spin 1">
      <set comment="kpoint 1">
       <r>  -14.8470    1.0000 </r>
       <r>  -14.7260    1.0000 </r>
       <r>  -14.6575    1.0000 </r>
       <r>  -12.3671    1.0000 </r>
       <r>  -12.1215    1.0000 </r>
       <r>  -11.9416    1.0000 </r>
       <r>   -8.5951    1.0000 </r>
       <r>   -8.5096    1.0000 </r>
       <r>   -8.4797    1.0000 </r>
       <r>   -5.9176    1.0000 </r>
       <r>   -5.5391    1.0000 </r>
       <r>   -5.1205    1.0000 </r>
       <r>   -4.4977    1.0000 </r>
       <r>   -4.4950    1.0000 </r>
       <r>   -4.1769    1.0000 </r>
       <r>   -4.1347    1.0000 </r>
       <r>   -3.9877    1.0000 </r>
       <r>   -3.9110    1.0000 </r>
       <r>   -3.3864    1.0000 </r>
       <r>   -3.2852    1.0000 </r>
       <r>   -3.2354    1.0000 </r>
       <r>   -1.8721    1.0000 </r>
       <r>   -1.7289    1.0000 </r>
       <r>   -1.6160    1.0000 </r>
       <r>   -1.5819    1.0000 </r>
       <r>   -1.4969    1.0000 </r>
       <r>   -1.0991    1.0000 </r>
       <r>   -0.2407    1.0000 </r>
       <r>    0.3637    1.0000 </r>
       <r>    0.9195    1.0000 </r>
       <r>    0.9756    0.0000 </r>
       <r>    1.5029    0.0000 </r>
       <r>    1.5260    0.0000 </r>
       <r>    1.7031    0.0000 </r>
       <r>    1.7083    0.0000 </r>
       <r>    1.8644    0.0000 </r>
       <r>    2.7333    0.0000 </r>
       <r>    2.9035    0.0000 </r>
       <r>    2.9743    0.0000 </r>
       <r>    3.7080    0.0000 </r>
      </set>
      <set comment="kpoint 2">
       <r>  -14.1228    1.0000 </r>
       <r>  -14.0046    1.0000 </r>
       <r>  -13.9391    1.0000 </r>
       <r>  -11.6114    1.0000 </r>
       <r>  -11.3690    1.0000 </r>
       <r>  -11.1917    1.0000 </r>
       <r>   -9.4194    1.0000 </r>
       <r>   -9.3590    1.0000 </r>
       <r>   -9.3553    1.0000 </r>
       <r>   -6.0115    1.0000 </r>
       <r>   -5.8652    1.0000 </r>
       <r>   -5.7720    1.0000 </r>
       <r>   -5.3222    1.0000 </r>
       <r>   -4.9650    1.0000 </r>
       <r>   -4.8557    1.0000 </r>
       <r>   -4.8075    1.0000 </r>
       <r>   -4.7894    1.0000 </r>
       <r>   -4.6058    1.0000 </r>
       <r>   -3.8674    1.0000 </r>
       <r>   -3.5483    1.0000 </r>
       <r>   -3.4107    1.0000 </r>
       <r>   -2.8421    1.0000 </r>
       <r>   -2.5626    1.0000 </r>
       <r>   -2.3050    1.0000 </r>
       <r>   -1.6696    1.0000 </r>
       <r>   -1.3864    1.0000 </r>
       <r>   -0.9351    1.0000 </r>
       <r>   -0.3676    1.0000 </r>
       <r>   -0.1818    1.0000 </r>
       <r>   -0.1268    1.0000 </r>
       <r>    1.3127    0.0000 </r>
       <r>    1.3942    0.0000 </r>
       <r>    1.7261    0.0000 </r>
       <r>    1.7488    0.0000 </r>
       <r>    2.3218    0.0000 </r>
       <r>    2.5067    0.0000 </r>
       <r>    3.2885    0.0000 </r>
       <r>    3.5892    0.0000 </r>
       <r>    3.6316    0.0000 </r>
       <r>    3.6661    0.0000 </r>
      </set>
      <set comment="kpoint 3">
       <r>  -12.0591    1.0000 </r>
       <r>  -12.0591    1.0000 </r>
       <r>  -11.9533    1.0000 </r>
       <r>  -11.9533    1.0000 </r>
       <r>  -11.9011    1.0000 </r>
       <r>  -11.9011    1.0000 </r>
       <r>   -9.3931    1.0000 </r>
       <r>   -9.3931    1.0000 </r>
       <r>   -9.1646    1.0000 </r>
       <r>   -9.1646    1.0000 </r>
       <r>   -8.9983    1.0000 </r>
       <r>   -8.9983    1.0000 </r>
       <r>   -4.4612    1.0000 </r>
       <r>   -4.4612    1.0000 </r>
       <r>   -4.3264    1.0000 </r>
       <r>   -4.3264    1.0000 </r>
       <r>   -4.2810    1.0000 </r>
       <r>   -4.2810    1.0000 </r>
       <r>   -2.4595    1.0000 </r>
       <r>   -2.4595    1.0000 </r>
       <r>   -2.3848    1.0000 </r>
       <r>   -2.3848    1.0000 </r>
       <r>   -2.3840    1.0000 </r>
       <r>   -2.3840    1.0000 </r>
       <r>   -2.0027    1.0000 </r>
       <r>   -2.0027    1.0000 </r>
       <r>   -1.7322    1.0000 </r>
       <r>   -1.7322    1.0000 </r>
       <r>   -1.4803    1.0000 </r>
       <r>   -1.4803    1.0000 </r>
       <r>    1.6268    0.0000 </r>
       <r>    1.6268    0.0000 </r>
       <r>    1.6395    0.0000 </r>
       <r>    1.6395    0.0000 </r>
       <r>    1.7215    0.0000 </r>
       <r>    1.7215    0.0000 </r>
       <r>    2.1629    0.0000 </r>
       <r>    2.1629    0.0000 </r>
       <r>    2.2003    0.0000 </r>
       <r>    2.2004    0.0000 </r>
      </set>
      <set comment="kpoint 4">
       <r>  -14.2322    1.0000 </r>
       <r>  -14.1254    1.0000 </r>
       <r>  -14.0721    1.0000 </r>
       <r>  -12.8207    1.0000 </r>
       <r>  -12.7412    1.0000 </r>
       <r>  -12.7308    1.0000 </r>
       <r>   -9.0254    1.0000 </r>
       <r>   -8.7950    1.0000 </r>
       <r>   -8.6004    1.0000 </r>
       <r>   -7.5459    1.0000 </r>
       <r>   -7.2309    1.0000 </r>
       <r>   -6.9803    1.0000 </r>
       <r>   -4.3531    1.0000 </r>
       <r>   -3.6839    1.0000 </r>
       <r>   -2.9173    1.0000 </r>
       <r>   -2.9080    1.0000 </r>
       <r>   -2.8228    1.0000 </r>
       <r>   -2.7901    1.0000 </r>
       <r>   -2.5342    1.0000 </r>
       <r>   -2.3177    1.0000 </r>
       <r>   -2.1072    1.0000 </r>
       <r>   -1.9863    1.0000 </r>
       <r>   -1.9122    1.0000 </r>
       <r>   -1.8990    1.0000 </r>
       <r>   -1.8148    1.0000 </r>
       <r>   -1.5675    1.0000 </r>
       <r>   -0.9222    1.0000 </r>
       <r>    0.1598    1.0000 </r>
       <r>    0.1892    1.0000 </r>
       <r>    0.2267    1.0000 </r>
       <r>    1.8871    0.0000 </r>
       <r>    1.9300    0.0000 </r>
       <r>    2.0255    0.0000 </r>
       <r>    2.0536    0.0000 </r>
       <r>    2.2168    0.0000 </r>
       <r>    2.2847    0.0000 </r>
       <r>    2.8511    0.0000 </r>
       <r>    3.2065    0.0000 </r>
       <r>    3.2533    0.0000 </r>
       <r>    3.3396    0.0000 </r>
      </set>
      <set comment="kpoint 5">
       <r>  -13.5297    1.0000 </r>
       <r>  -13.4258    1.0000 </r>
       <r>  -13.3754    1.0000 </r>
       <r>  -12.1473    1.0000 </r>
       <r>  -12.0741    1.0000 </r>
       <r>  -12.0682    1.0000 </r>
       <r>   -9.0595    1.0000 </r>
       <r>   -8.8641    1.0000 </r>
       <r>   -8.7189    1.0000 </r>
       <r>   -7.3999    1.0000 </r>
       <r>   -7.2106    1.0000 </r>
       <r>   -7.0921    1.0000 </r>
       <r>   -5.6926    1.0000 </r>
       <r>   -5.5136    1.0000 </r>
       <r>   -5.3825    1.0000 </r>
       <r>   -4.7989    1.0000 </r>
       <r>   -4.6966    1.0000 </r>
       <r>   -4.6966    1.0000 </r>
       <r>   -3.6788    1.0000 </r>
       <r>   -3.2076    1.0000 </r>
       <r>   -2.7353    1.0000 </r>
       <r>   -2.3200    1.0000 </r>
       <r>   -1.9860    1.0000 </r>
       <r>   -1.8730    1.0000 </r>
       <r>   -1.6725    1.0000 </r>
       <r>   -1.4266    1.0000 </r>
       <r>   -1.2856    1.0000 </r>
       <r>   -1.0998    1.0000 </r>
       <r>   -0.8233    1.0000 </r>
       <r>   -0.5836    1.0000 </r>
       <r>    2.1614    0.0000 </r>
       <r>    2.2728    0.0000 </r>
       <r>    2.5090    0.0000 </r>
       <r>    2.9117    0.0000 </r>
       <r>    2.9300    0.0000 </r>
       <r>    3.4778    0.0000 </r>
       <r>    3.5496    0.0000 </r>
       <r>    3.7609    0.0000 </r>
       <r>    3.9544    0.0000 </r>
       <r>    4.1878    0.0000 </r>
      </set>
      <set comment="kpoint 6">
       <r>  -11.7167    1.0000 </r>
       <r>  -11.7167    1.0000 </r>
       <r>  -11.6356    1.0000 </r>
       <r>  -11.6356    1.0000 </r>
       <r>  -11.6102    1.0000 </r>
       <r>  -11.6102    1.0000 </r>
       <r>   -9.4641    1.0000 </r>
       <r>   -9.4641    1.0000 </r>
       <r>   -9.3489    1.0000 </r>
       <r>   -9.3489    1.0000 </r>
       <r>   -9.2991    1.0000 </r>
       <r>   -9.2991    1.0000 </r>
       <r>   -5.1437    1.0000 </r>
       <r>   -5.1437    1.0000 </r>
       <r>   -4.9087    1.0000 </r>
       <r>   -4.9087    1.0000 </r>
       <r>   -4.7066    1.0000 </r>
       <r>   -4.7066    1.0000 </r>
       <r>   -4.1784    1.0000 </r>
       <r>   -4.1784    1.0000 </r>
       <r>   -3.8855    1.0000 </r>
       <r>   -3.8855    1.0000 </r>
       <r>   -3.6668    1.0000 </r>
       <r>   -3.6668    1.0000 </r>
       <r>   -1.4868    1.0000 </r>
       <r>   -1.4868    1.0000 </r>
       <r>   -1.1243    1.0000 </r>
       <r>   -1.1243    1.0000 </r>
       <r>   -0.9245    1.0000 </r>
       <r>   -0.9245    1.0000 </r>
       <r>    2.5580    0.0000 </r>
       <r>    2.5580    0.0000 </r>
       <r>    2.7519    0.0000 </r>
       <r>    2.7519    0.0000 </r>
       <r>    3.0066    0.0000 </r>
       <r>    3.0066    0.0000 </r>
       <r>    3.3759    0.0000 </r>
       <r>    3.3759    0.0000 </r>
       <r>    3.6010    0.0000 </r>
       <r>    3.6010    0.0000 </r>
      </set>
     </set>
    </set>
   </array>
  </eigenvalues>
  <separator name="orbital magnetization" >
   <v name="MAGDIPOLOUT">      0.00000000      0.00000000      0.00000000</v>
  </separator>
  <dos>
   <i name="efermi">      0.94757248 </i>
   <total>
    <array>
     <dimension dim="1">gridpoints</dimension>
     <dimension dim="2">spin</dimension>
     <field>energy</field>
     <field>total</field>
     <field>integrated</field>
     <set>
      <set comment="spin 1">
       <r>   -15.7987     0.0000     0.0000 </r>
       <r>   -15.7883     0.0000     0.0000 </r>
       <r>   -15.7778     0.0000     0.0000 </r>
       <r>   -15.7673     0.0000     0.0000 </r>
       <r>   -15.7568     0.0000     0.0000 </r>
       <r>   -15.7464     0.0000     0.0000 </r>
       <r>   -15.7359     0.0000     0.0000 </r>
       <r>   -15.7254     0.0000     0.0000 </r>
       <r>   -15.7149     0.0000     0.0000 </r>
       <r>   -15.7045     0.0000     0.0000 </r>
       <r>   -15.6940     0.0000     0.0000 </r>
       <r>   -15.6835     0.0000     0.0000 </r>
       <r>   -15.6731     0.0000     0.0000 </r>
       <r>   -15.6626     0.0000     0.0000 </r>
       <r>   -15.6521     0.0000     0.0000 </r>
       <r>   -15.6416     0.0000     0.0000 </r>
       <r>   -15.6312     0.0000     0.0000 </r>
       <r>   -15.6207     0.0000     0.0000 </r>
       <r>   -15.6102     0.0000     0.0000 </r>
       <r>   -15.5997     0.0000     0.0000 </r>
       <r>   -15.5893     0.0000     0.0000 </r>
       <r>   -15.5788     0.0000     0.0000 </r>
       <r>   -15.5683     0.0000     0.0000 </r>
       <r>   -15.5578     0.0000     0.0000 </r>
       <r>   -15.5474     0.0000     0.0000 </r>
       <r>   -15.5369     0.0000     0.0000 </r>
       <r>   -15.5264     0.0000     0.0000 </r>
       <r>   -15.5159     0.0000     0.0000 </r>
       <r>   -15.5055     0.0000     0.0000 </r>
       <r>   -15.4950     0.0000     0.0000 </r>
       <r>   -15.4845     0.0000     0.0000 </r>
       <r>   -15.4740     0.0000     0.0000 </r>
       <r>   -15.4636     0.0000     0.0000 </r>
       <r>   -15.4531     0.0000     0.0000 </r>
       <r>   -15.4426     0.0000     0.0000 </r>
       <r>   -15.4321     0.0000     0.0000 </r>
       <r>   -15.4217     0.0000     0.0000 </r>
       <r>   -15.4112     0.0000     0.0000 </r>
       <r>   -15.4007     0.0000     0.0000 </r>
       <r>   -15.3902     0.0000     0.0000 </r>
       <r>   -15.3798     0.0000     0.0000 </r>
       <r>   -15.3693     0.0000     0.0000 </r>
       <r>   -15.3588     0.0000     0.0000 </r>
       <r>   -15.3483     0.0000     0.0000 </r>
       <r>   -15.3379     0.0000     0.0000 </r>
       <r>   -15.3274     0.0000     0.0000 </r>
       <r>   -15.3169     0.0000     0.0000 </r>
       <r>   -15.3064     0.0000     0.0000 </r>
       <r>   -15.2960     0.0000     0.0000 </r>
       <r>   -15.2855     0.0000     0.0000 </r>
       <r>   -15.2750     0.0000     0.0000 </r>
       <r>   -15.2645     0.0000     0.0000 </r>
       <r>   -15.2541     0.0000     0.0000 </r>
       <r>   -15.2436     0.0000     0.0000 </r>
       <r>   -15.2331     0.0000     0.0000 </r>
       <r>   -15.2227     0.0000     0.0000 </r>
       <r>   -15.2122     0.0000     0.0000 </r>
       <r>   -15.2017     0.0000     0.0000 </r>
       <r>   -15.1912     0.0000     0.0000 </r>
       <r>   -15.1808     0.0000     0.0000 </r>
       <r>   -15.1703     0.0000     0.0000 </r>
       <r>   -15.1598     0.0000     0.0000 </r>
       <r>   -15.1493     0.0000     0.0000 </r>
       <r>   -15.1389     0.0000     0.0000 </r>
       <r>   -15.1284     0.0000     0.0000 </r>
       <r>   -15.1179     0.0000     0.0000 </r>
       <r>   -15.1074     0.0000     0.0000 </r>
       <r>   -15.0970     0.0000     0.0000 </r>
       <r>   -15.0865     0.0000     0.0000 </r>
       <r>   -15.0760     0.0000     0.0000 </r>
       <r>   -15.0655     0.0000     0.0000 </r>
       <r>   -15.0551     0.0000     0.0000 </r>
       <r>   -15.0446     0.0000     0.0000 </r>
       <r>   -15.0341     0.0000     0.0000 </r>
       <r>   -15.0236     0.0000     0.0000 </r>
       <r>   -15.0132     0.0000     0.0000 </r>
       <r>   -15.0027     0.0000     0.0000 </r>
       <r>   -14.9922     0.0000     0.0000 </r>
       <r>   -14.9817     0.0000     0.0000 </r>
       <r>   -14.9713     0.0000     0.0000 </r>
       <r>   -14.9608     0.0000     0.0000 </r>
       <r>   -14.9503     0.0000     0.0000 </r>
       <r>   -14.9398     0.0000     0.0000 </r>
       <r>   -14.9294     0.0000     0.0000 </r>
       <r>   -14.9189     0.0000     0.0000 </r>
       <r>   -14.9084     0.0000     0.0000 </r>
       <r>   -14.8979     0.0000     0.0000 </r>
       <r>   -14.8875     0.0000     0.0000 </r>
       <r>   -14.8770     0.0002     0.0000 </r>
       <r>   -14.8665     0.0457     0.0005 </r>
       <r>   -14.8560     1.5516     0.0167 </r>
       <r>   -14.8456     7.6320     0.0967 </r>
       <r>   -14.8351     5.9479     0.1590 </r>
       <r>   -14.8246     0.7221     0.1665 </r>
       <r>   -14.8142     0.0123     0.1667 </r>
       <r>   -14.8037     0.0000     0.1667 </r>
       <r>   -14.7932     0.0000     0.1667 </r>
       <r>   -14.7827     0.0000     0.1667 </r>
       <r>   -14.7723     0.0000     0.1667 </r>
       <r>   -14.7618     0.0000     0.1667 </r>
       <r>   -14.7513     0.0028     0.1667 </r>
       <r>   -14.7408     0.2864     0.1697 </r>
       <r>   -14.7304     4.0128     0.2117 </r>
       <r>   -14.7199     8.5506     0.3013 </r>
       <r>   -14.7094     2.9102     0.3318 </r>
       <r>   -14.6989     0.1480     0.3333 </r>
       <r>   -14.6885     0.0011     0.3333 </r>
       <r>   -14.6780     0.0303     0.3337 </r>
       <r>   -14.6675     1.2277     0.3465 </r>
       <r>   -14.6570     7.1413     0.4213 </r>
       <r>   -14.6466     6.5510     0.4899 </r>
       <r>   -14.6361     0.9422     0.4998 </r>
       <r>   -14.6256     0.0192     0.5000 </r>
       <r>   -14.6151     0.0001     0.5000 </r>
       <r>   -14.6047     0.0000     0.5000 </r>
       <r>   -14.5942     0.0000     0.5000 </r>
       <r>   -14.5837     0.0000     0.5000 </r>
       <r>   -14.5732     0.0000     0.5000 </r>
       <r>   -14.5628     0.0000     0.5000 </r>
       <r>   -14.5523     0.0000     0.5000 </r>
       <r>   -14.5418     0.0000     0.5000 </r>
       <r>   -14.5313     0.0000     0.5000 </r>
       <r>   -14.5209     0.0000     0.5000 </r>
       <r>   -14.5104     0.0000     0.5000 </r>
       <r>   -14.4999     0.0000     0.5000 </r>
       <r>   -14.4894     0.0000     0.5000 </r>
       <r>   -14.4790     0.0000     0.5000 </r>
       <r>   -14.4685     0.0000     0.5000 </r>
       <r>   -14.4580     0.0000     0.5000 </r>
       <r>   -14.4475     0.0000     0.5000 </r>
       <r>   -14.4371     0.0000     0.5000 </r>
       <r>   -14.4266     0.0000     0.5000 </r>
       <r>   -14.4161     0.0000     0.5000 </r>
       <r>   -14.4056     0.0000     0.5000 </r>
       <r>   -14.3952     0.0000     0.5000 </r>
       <r>   -14.3847     0.0000     0.5000 </r>
       <r>   -14.3742     0.0000     0.5000 </r>
       <r>   -14.3638     0.0000     0.5000 </r>
       <r>   -14.3533     0.0000     0.5000 </r>
       <r>   -14.3428     0.0000     0.5000 </r>
       <r>   -14.3323     0.0000     0.5000 </r>
       <r>   -14.3219     0.0000     0.5000 </r>
       <r>   -14.3114     0.0000     0.5000 </r>
       <r>   -14.3009     0.0000     0.5000 </r>
       <r>   -14.2904     0.0000     0.5000 </r>
       <r>   -14.2800     0.0000     0.5000 </r>
       <r>   -14.2695     0.0000     0.5000 </r>
       <r>   -14.2590     0.0023     0.5000 </r>
       <r>   -14.2485     0.3253     0.5034 </r>
       <r>   -14.2381     6.1042     0.5674 </r>
       <r>   -14.2276    17.1573     0.7471 </r>
       <r>   -14.2171     7.7047     0.8278 </r>
       <r>   -14.2066     0.5249     0.8333 </r>
       <r>   -14.1962     0.0049     0.8333 </r>
       <r>   -14.1857     0.0000     0.8333 </r>
       <r>   -14.1752     0.0000     0.8333 </r>
       <r>   -14.1647     0.0000     0.8333 </r>
       <r>   -14.1543     0.0008     0.8333 </r>
       <r>   -14.1438     0.1945     0.8354 </r>
       <r>   -14.1333     6.1720     0.9000 </r>
       <r>   -14.1228    29.9107     1.2133 </r>
       <r>   -14.1124    24.1162     1.4659 </r>
       <r>   -14.1019     3.1905     1.4993 </r>
       <r>   -14.0914     0.1623     1.5010 </r>
       <r>   -14.0809     3.2538     1.5351 </r>
       <r>   -14.0705    15.4506     1.6970 </r>
       <r>   -14.0600    11.6342     1.8188 </r>
       <r>   -14.0495     1.3628     1.8331 </r>
       <r>   -14.0390     0.0224     1.8333 </r>
       <r>   -14.0286     0.0112     1.8335 </r>
       <r>   -14.0181     0.8865     1.8427 </r>
       <r>   -14.0076     9.7589     1.9450 </r>
       <r>   -13.9971    16.5284     2.1181 </r>
       <r>   -13.9867     4.4603     2.1648 </r>
       <r>   -13.9762     0.1774     2.1667 </r>
       <r>   -13.9657     0.0035     2.1667 </r>
       <r>   -13.9552     0.3485     2.1703 </r>
       <r>   -13.9448     6.3183     2.2365 </r>
       <r>   -13.9343    17.1873     2.4166 </r>
       <r>   -13.9238     7.4707     2.4948 </r>
       <r>   -13.9134     0.4918     2.5000 </r>
       <r>   -13.9029     0.0044     2.5000 </r>
       <r>   -13.8924     0.0000     2.5000 </r>
       <r>   -13.8819     0.0000     2.5000 </r>
       <r>   -13.8715     0.0000     2.5000 </r>
       <r>   -13.8610     0.0000     2.5000 </r>
       <r>   -13.8505     0.0000     2.5000 </r>
       <r>   -13.8400     0.0000     2.5000 </r>
       <r>   -13.8296     0.0000     2.5000 </r>
       <r>   -13.8191     0.0000     2.5000 </r>
       <r>   -13.8086     0.0000     2.5000 </r>
       <r>   -13.7981     0.0000     2.5000 </r>
       <r>   -13.7877     0.0000     2.5000 </r>
       <r>   -13.7772     0.0000     2.5000 </r>
       <r>   -13.7667     0.0000     2.5000 </r>
       <r>   -13.7562     0.0000     2.5000 </r>
       <r>   -13.7458     0.0000     2.5000 </r>
       <r>   -13.7353     0.0000     2.5000 </r>
       <r>   -13.7248     0.0000     2.5000 </r>
       <r>   -13.7143     0.0000     2.5000 </r>
       <r>   -13.7039     0.0000     2.5000 </r>
       <r>   -13.6934     0.0000     2.5000 </r>
       <r>   -13.6829     0.0000     2.5000 </r>
       <r>   -13.6724     0.0000     2.5000 </r>
       <r>   -13.6620     0.0000     2.5000 </r>
       <r>   -13.6515     0.0000     2.5000 </r>
       <r>   -13.6410     0.0000     2.5000 </r>
       <r>   -13.6305     0.0000     2.5000 </r>
       <r>   -13.6201     0.0000     2.5000 </r>
       <r>   -13.6096     0.0000     2.5000 </r>
       <r>   -13.5991     0.0000     2.5000 </r>
       <r>   -13.5886     0.0000     2.5000 </r>
       <r>   -13.5782     0.0000     2.5000 </r>
       <r>   -13.5677     0.0000     2.5000 </r>
       <r>   -13.5572     0.0032     2.5000 </r>
       <r>   -13.5467     0.5036     2.5053 </r>
       <r>   -13.5363    10.7183     2.6176 </r>
       <r>   -13.5258    33.9341     2.9730 </r>
       <r>   -13.5153    17.1507     3.1527 </r>
       <r>   -13.5049     1.3233     3.1665 </r>
       <r>   -13.4944     0.0140     3.1667 </r>
       <r>   -13.4839     0.0000     3.1667 </r>
       <r>   -13.4734     0.0000     3.1667 </r>
       <r>   -13.4630     0.0000     3.1667 </r>
       <r>   -13.4525     0.0050     3.1667 </r>
       <r>   -13.4420     0.6804     3.1738 </r>
       <r>   -13.4315    12.4846     3.3046 </r>
       <r>   -13.4211    34.3557     3.6645 </r>
       <r>   -13.4106    15.1059     3.8227 </r>
       <r>   -13.4001     1.0219     3.8334 </r>
       <r>   -13.3896     1.4124     3.8482 </r>
       <r>   -13.3792    17.6113     4.0327 </r>
       <r>   -13.3687    33.7946     4.3866 </r>
       <r>   -13.3582    10.3492     4.4950 </r>
       <r>   -13.3477     0.4707     4.5000 </r>
       <r>   -13.3373     0.0029     4.5000 </r>
       <r>   -13.3268     0.0000     4.5000 </r>
       <r>   -13.3163     0.0000     4.5000 </r>
       <r>   -13.3058     0.0000     4.5000 </r>
       <r>   -13.2954     0.0000     4.5000 </r>
       <r>   -13.2849     0.0000     4.5000 </r>
       <r>   -13.2744     0.0000     4.5000 </r>
       <r>   -13.2639     0.0000     4.5000 </r>
       <r>   -13.2535     0.0000     4.5000 </r>
       <r>   -13.2430     0.0000     4.5000 </r>
       <r>   -13.2325     0.0000     4.5000 </r>
       <r>   -13.2220     0.0000     4.5000 </r>
       <r>   -13.2116     0.0000     4.5000 </r>
       <r>   -13.2011     0.0000     4.5000 </r>
       <r>   -13.1906     0.0000     4.5000 </r>
       <r>   -13.1801     0.0000     4.5000 </r>
       <r>   -13.1697     0.0000     4.5000 </r>
       <r>   -13.1592     0.0000     4.5000 </r>
       <r>   -13.1487     0.0000     4.5000 </r>
       <r>   -13.1382     0.0000     4.5000 </r>
       <r>   -13.1278     0.0000     4.5000 </r>
       <r>   -13.1173     0.0000     4.5000 </r>
       <r>   -13.1068     0.0000     4.5000 </r>
       <r>   -13.0963     0.0000     4.5000 </r>
       <r>   -13.0859     0.0000     4.5000 </r>
       <r>   -13.0754     0.0000     4.5000 </r>
       <r>   -13.0649     0.0000     4.5000 </r>
       <r>   -13.0545     0.0000     4.5000 </r>
       <r>   -13.0440     0.0000     4.5000 </r>
       <r>   -13.0335     0.0000     4.5000 </r>
       <r>   -13.0230     0.0000     4.5000 </r>
       <r>   -13.0126     0.0000     4.5000 </r>
       <r>   -13.0021     0.0000     4.5000 </r>
       <r>   -12.9916     0.0000     4.5000 </r>
       <r>   -12.9811     0.0000     4.5000 </r>
       <r>   -12.9707     0.0000     4.5000 </r>
       <r>   -12.9602     0.0000     4.5000 </r>
       <r>   -12.9497     0.0000     4.5000 </r>
       <r>   -12.9392     0.0000     4.5000 </r>
       <r>   -12.9288     0.0000     4.5000 </r>
       <r>   -12.9183     0.0000     4.5000 </r>
       <r>   -12.9078     0.0000     4.5000 </r>
       <r>   -12.8973     0.0000     4.5000 </r>
       <r>   -12.8869     0.0000     4.5000 </r>
       <r>   -12.8764     0.0000     4.5000 </r>
       <r>   -12.8659     0.0000     4.5000 </r>
       <r>   -12.8554     0.0000     4.5000 </r>
       <r>   -12.8450     0.0093     4.5001 </r>
       <r>   -12.8345     0.7942     4.5084 </r>
       <r>   -12.8240     9.3039     4.6059 </r>
       <r>   -12.8135    16.7202     4.7810 </r>
       <r>   -12.8031     4.7917     4.8312 </r>
       <r>   -12.7926     0.2031     4.8333 </r>
       <r>   -12.7821     0.0011     4.8333 </r>
       <r>   -12.7716     0.0003     4.8333 </r>
       <r>   -12.7612     0.0767     4.8341 </r>
       <r>   -12.7507     2.8807     4.8643 </r>
       <r>   -12.7402    17.6476     5.0492 </r>
       <r>   -12.7297    27.2737     5.3348 </r>
       <r>   -12.7193    14.0758     5.4823 </r>
       <r>   -12.7088     1.6619     5.4997 </r>
       <r>   -12.6983     0.0303     5.5000 </r>
       <r>   -12.6878     0.0001     5.5000 </r>
       <r>   -12.6774     0.0000     5.5000 </r>
       <r>   -12.6669     0.0000     5.5000 </r>
       <r>   -12.6564     0.0000     5.5000 </r>
       <r>   -12.6459     0.0000     5.5000 </r>
       <r>   -12.6355     0.0000     5.5000 </r>
       <r>   -12.6250     0.0000     5.5000 </r>
       <r>   -12.6145     0.0000     5.5000 </r>
       <r>   -12.6041     0.0000     5.5000 </r>
       <r>   -12.5936     0.0000     5.5000 </r>
       <r>   -12.5831     0.0000     5.5000 </r>
       <r>   -12.5726     0.0000     5.5000 </r>
       <r>   -12.5622     0.0000     5.5000 </r>
       <r>   -12.5517     0.0000     5.5000 </r>
       <r>   -12.5412     0.0000     5.5000 </r>
       <r>   -12.5307     0.0000     5.5000 </r>
       <r>   -12.5203     0.0000     5.5000 </r>
       <r>   -12.5098     0.0000     5.5000 </r>
       <r>   -12.4993     0.0000     5.5000 </r>
       <r>   -12.4888     0.0000     5.5000 </r>
       <r>   -12.4784     0.0000     5.5000 </r>
       <r>   -12.4679     0.0000     5.5000 </r>
       <r>   -12.4574     0.0000     5.5000 </r>
       <r>   -12.4469     0.0000     5.5000 </r>
       <r>   -12.4365     0.0000     5.5000 </r>
       <r>   -12.4260     0.0000     5.5000 </r>
       <r>   -12.4155     0.0000     5.5000 </r>
       <r>   -12.4050     0.0000     5.5000 </r>
       <r>   -12.3946     0.0008     5.5000 </r>
       <r>   -12.3841     0.1287     5.5014 </r>
       <r>   -12.3736     2.7095     5.5297 </r>
       <r>   -12.3631     8.4938     5.6187 </r>
       <r>   -12.3527     4.2510     5.6632 </r>
       <r>   -12.3422     0.3246     5.6666 </r>
       <r>   -12.3317     0.0034     5.6667 </r>
       <r>   -12.3212     0.0000     5.6667 </r>
       <r>   -12.3108     0.0000     5.6667 </r>
       <r>   -12.3003     0.0000     5.6667 </r>
       <r>   -12.2898     0.0000     5.6667 </r>
       <r>   -12.2793     0.0000     5.6667 </r>
       <r>   -12.2689     0.0000     5.6667 </r>
       <r>   -12.2584     0.0000     5.6667 </r>
       <r>   -12.2479     0.0000     5.6667 </r>
       <r>   -12.2374     0.0000     5.6667 </r>
       <r>   -12.2270     0.0000     5.6667 </r>
       <r>   -12.2165     0.0000     5.6667 </r>
       <r>   -12.2060     0.0000     5.6667 </r>
       <r>   -12.1956     0.0000     5.6667 </r>
       <r>   -12.1851     0.0000     5.6667 </r>
       <r>   -12.1746     0.0036     5.6667 </r>
       <r>   -12.1641     0.5516     5.6725 </r>
       <r>   -12.1537    11.2307     5.7901 </r>
       <r>   -12.1432    34.1139     6.1474 </r>
       <r>   -12.1327    17.4107     6.3298 </r>
       <r>   -12.1222     7.6158     6.4096 </r>
       <r>   -12.1118     7.2906     6.4859 </r>
       <r>   -12.1013     1.3121     6.4997 </r>
       <r>   -12.0908     0.6584     6.5066 </r>
       <r>   -12.0803    14.2504     6.6558 </r>
       <r>   -12.0699    59.2753     7.2767 </r>
       <r>   -12.0594    60.5442     7.9109 </r>
       <r>   -12.0489    21.8185     8.1394 </r>
       <r>   -12.0384     2.5450     8.1661 </r>
       <r>   -12.0280     0.0561     8.1667 </r>
       <r>   -12.0175     0.0002     8.1667 </r>
       <r>   -12.0070     0.0000     8.1667 </r>
       <r>   -11.9965     0.0000     8.1667 </r>
       <r>   -11.9861     0.0001     8.1667 </r>
       <r>   -11.9756     0.0254     8.1669 </r>
       <r>   -11.9651     1.4777     8.1824 </r>
       <r>   -11.9546    12.4927     8.3133 </r>
       <r>   -11.9442    20.4028     8.5270 </r>
       <r>   -11.9337    11.1629     8.6439 </r>
       <r>   -11.9232     2.1280     8.6662 </r>
       <r>   -11.9127     1.6335     8.6833 </r>
       <r>   -11.9023    12.2450     8.8116 </r>
       <r>   -11.8918    15.0010     8.9687 </r>
       <r>   -11.8813     2.9081     8.9991 </r>
       <r>   -11.8708     0.0815     9.0000 </r>
       <r>   -11.8604     0.0003     9.0000 </r>
       <r>   -11.8499     0.0000     9.0000 </r>
       <r>   -11.8394     0.0000     9.0000 </r>
       <r>   -11.8289     0.0000     9.0000 </r>
       <r>   -11.8185     0.0000     9.0000 </r>
       <r>   -11.8080     0.0000     9.0000 </r>
       <r>   -11.7975     0.0000     9.0000 </r>
       <r>   -11.7870     0.0000     9.0000 </r>
       <r>   -11.7766     0.0000     9.0000 </r>
       <r>   -11.7661     0.0000     9.0000 </r>
       <r>   -11.7556     0.0000     9.0000 </r>
       <r>   -11.7452     0.0019     9.0000 </r>
       <r>   -11.7347     0.3530     9.0037 </r>
       <r>   -11.7242     8.8950     9.0969 </r>
       <r>   -11.7137    33.0403     9.4430 </r>
       <r>   -11.7033    19.5541     9.6478 </r>
       <r>   -11.6928     1.7807     9.6664 </r>
       <r>   -11.6823     0.0224     9.6667 </r>
       <r>   -11.6718     0.0000     9.6667 </r>
       <r>   -11.6614     0.0088     9.6668 </r>
       <r>   -11.6509     0.9822     9.6770 </r>
       <r>   -11.6404    14.9326     9.8335 </r>
       <r>   -11.6299    34.6837    10.1967 </r>
       <r>   -11.6195    22.4856    10.4323 </r>
       <r>   -11.6090    46.9652    10.9242 </r>
       <r>   -11.5985    34.8638    11.2894 </r>
       <r>   -11.5880     4.1268    11.3326 </r>
       <r>   -11.5776     0.0693    11.3333 </r>
       <r>   -11.5671     0.0002    11.3333 </r>
       <r>   -11.5566     0.0000    11.3333 </r>
       <r>   -11.5461     0.0000    11.3333 </r>
       <r>   -11.5357     0.0000    11.3333 </r>
       <r>   -11.5252     0.0000    11.3333 </r>
       <r>   -11.5147     0.0000    11.3333 </r>
       <r>   -11.5042     0.0000    11.3333 </r>
       <r>   -11.4938     0.0000    11.3333 </r>
       <r>   -11.4833     0.0000    11.3333 </r>
       <r>   -11.4728     0.0000    11.3333 </r>
       <r>   -11.4623     0.0000    11.3333 </r>
       <r>   -11.4519     0.0000    11.3333 </r>
       <r>   -11.4414     0.0000    11.3333 </r>
       <r>   -11.4309     0.0000    11.3333 </r>
       <r>   -11.4204     0.0000    11.3333 </r>
       <r>   -11.4100     0.0000    11.3333 </r>
       <r>   -11.3995     0.0003    11.3333 </r>
       <r>   -11.3890     0.0746    11.3341 </r>
       <r>   -11.3785     2.7659    11.3631 </r>
       <r>   -11.3681    14.7926    11.5180 </r>
       <r>   -11.3576    12.5067    11.6490 </r>
       <r>   -11.3471     1.6527    11.6663 </r>
       <r>   -11.3366     0.0309    11.6667 </r>
       <r>   -11.3262     0.0001    11.6667 </r>
       <r>   -11.3157     0.0000    11.6667 </r>
       <r>   -11.3052     0.0000    11.6667 </r>
       <r>   -11.2948     0.0000    11.6667 </r>
       <r>   -11.2843     0.0000    11.6667 </r>
       <r>   -11.2738     0.0000    11.6667 </r>
       <r>   -11.2633     0.0000    11.6667 </r>
       <r>   -11.2529     0.0000    11.6667 </r>
       <r>   -11.2424     0.0000    11.6667 </r>
       <r>   -11.2319     0.0000    11.6667 </r>
       <r>   -11.2214     0.0004    11.6667 </r>
       <r>   -11.2110     0.1024    11.6677 </r>
       <r>   -11.2005     3.3047    11.7024 </r>
       <r>   -11.1900    15.5108    11.8648 </r>
       <r>   -11.1795    11.5471    11.9858 </r>
       <r>   -11.1691     1.3366    11.9998 </r>
       <r>   -11.1586     0.0217    12.0000 </r>
       <r>   -11.1481     0.0000    12.0000 </r>
       <r>   -11.1376     0.0000    12.0000 </r>
       <r>   -11.1272     0.0000    12.0000 </r>
       <r>   -11.1167     0.0000    12.0000 </r>
       <r>   -11.1062     0.0000    12.0000 </r>
       <r>   -11.0957     0.0000    12.0000 </r>
       <r>   -11.0853     0.0000    12.0000 </r>
       <r>   -11.0748     0.0000    12.0000 </r>
       <r>   -11.0643     0.0000    12.0000 </r>
       <r>   -11.0538     0.0000    12.0000 </r>
       <r>   -11.0434     0.0000    12.0000 </r>
       <r>   -11.0329     0.0000    12.0000 </r>
       <r>   -11.0224     0.0000    12.0000 </r>
       <r>   -11.0119     0.0000    12.0000 </r>
       <r>   -11.0015     0.0000    12.0000 </r>
       <r>   -10.9910     0.0000    12.0000 </r>
       <r>   -10.9805     0.0000    12.0000 </r>
       <r>   -10.9700     0.0000    12.0000 </r>
       <r>   -10.9596     0.0000    12.0000 </r>
       <r>   -10.9491     0.0000    12.0000 </r>
       <r>   -10.9386     0.0000    12.0000 </r>
       <r>   -10.9281     0.0000    12.0000 </r>
       <r>   -10.9177     0.0000    12.0000 </r>
       <r>   -10.9072     0.0000    12.0000 </r>
       <r>   -10.8967     0.0000    12.0000 </r>
       <r>   -10.8863     0.0000    12.0000 </r>
       <r>   -10.8758     0.0000    12.0000 </r>
       <r>   -10.8653     0.0000    12.0000 </r>
       <r>   -10.8548     0.0000    12.0000 </r>
       <r>   -10.8444     0.0000    12.0000 </r>
       <r>   -10.8339     0.0000    12.0000 </r>
       <r>   -10.8234     0.0000    12.0000 </r>
       <r>   -10.8129     0.0000    12.0000 </r>
       <r>   -10.8025     0.0000    12.0000 </r>
       <r>   -10.7920     0.0000    12.0000 </r>
       <r>   -10.7815     0.0000    12.0000 </r>
       <r>   -10.7710     0.0000    12.0000 </r>
       <r>   -10.7606     0.0000    12.0000 </r>
       <r>   -10.7501     0.0000    12.0000 </r>
       <r>   -10.7396     0.0000    12.0000 </r>
       <r>   -10.7291     0.0000    12.0000 </r>
       <r>   -10.7187     0.0000    12.0000 </r>
       <r>   -10.7082     0.0000    12.0000 </r>
       <r>   -10.6977     0.0000    12.0000 </r>
       <r>   -10.6872     0.0000    12.0000 </r>
       <r>   -10.6768     0.0000    12.0000 </r>
       <r>   -10.6663     0.0000    12.0000 </r>
       <r>   -10.6558     0.0000    12.0000 </r>
       <r>   -10.6453     0.0000    12.0000 </r>
       <r>   -10.6349     0.0000    12.0000 </r>
       <r>   -10.6244     0.0000    12.0000 </r>
       <r>   -10.6139     0.0000    12.0000 </r>
       <r>   -10.6034     0.0000    12.0000 </r>
       <r>   -10.5930     0.0000    12.0000 </r>
       <r>   -10.5825     0.0000    12.0000 </r>
       <r>   -10.5720     0.0000    12.0000 </r>
       <r>   -10.5615     0.0000    12.0000 </r>
       <r>   -10.5511     0.0000    12.0000 </r>
       <r>   -10.5406     0.0000    12.0000 </r>
       <r>   -10.5301     0.0000    12.0000 </r>
       <r>   -10.5196     0.0000    12.0000 </r>
       <r>   -10.5092     0.0000    12.0000 </r>
       <r>   -10.4987     0.0000    12.0000 </r>
       <r>   -10.4882     0.0000    12.0000 </r>
       <r>   -10.4777     0.0000    12.0000 </r>
       <r>   -10.4673     0.0000    12.0000 </r>
       <r>   -10.4568     0.0000    12.0000 </r>
       <r>   -10.4463     0.0000    12.0000 </r>
       <r>   -10.4359     0.0000    12.0000 </r>
       <r>   -10.4254     0.0000    12.0000 </r>
       <r>   -10.4149     0.0000    12.0000 </r>
       <r>   -10.4044     0.0000    12.0000 </r>
       <r>   -10.3940     0.0000    12.0000 </r>
       <r>   -10.3835     0.0000    12.0000 </r>
       <r>   -10.3730     0.0000    12.0000 </r>
       <r>   -10.3625     0.0000    12.0000 </r>
       <r>   -10.3521     0.0000    12.0000 </r>
       <r>   -10.3416     0.0000    12.0000 </r>
       <r>   -10.3311     0.0000    12.0000 </r>
       <r>   -10.3206     0.0000    12.0000 </r>
       <r>   -10.3102     0.0000    12.0000 </r>
       <r>   -10.2997     0.0000    12.0000 </r>
       <r>   -10.2892     0.0000    12.0000 </r>
       <r>   -10.2787     0.0000    12.0000 </r>
       <r>   -10.2683     0.0000    12.0000 </r>
       <r>   -10.2578     0.0000    12.0000 </r>
       <r>   -10.2473     0.0000    12.0000 </r>
       <r>   -10.2368     0.0000    12.0000 </r>
       <r>   -10.2264     0.0000    12.0000 </r>
       <r>   -10.2159     0.0000    12.0000 </r>
       <r>   -10.2054     0.0000    12.0000 </r>
       <r>   -10.1949     0.0000    12.0000 </r>
       <r>   -10.1845     0.0000    12.0000 </r>
       <r>   -10.1740     0.0000    12.0000 </r>
       <r>   -10.1635     0.0000    12.0000 </r>
       <r>   -10.1530     0.0000    12.0000 </r>
       <r>   -10.1426     0.0000    12.0000 </r>
       <r>   -10.1321     0.0000    12.0000 </r>
       <r>   -10.1216     0.0000    12.0000 </r>
       <r>   -10.1111     0.0000    12.0000 </r>
       <r>   -10.1007     0.0000    12.0000 </r>
       <r>   -10.0902     0.0000    12.0000 </r>
       <r>   -10.0797     0.0000    12.0000 </r>
       <r>   -10.0692     0.0000    12.0000 </r>
       <r>   -10.0588     0.0000    12.0000 </r>
       <r>   -10.0483     0.0000    12.0000 </r>
       <r>   -10.0378     0.0000    12.0000 </r>
       <r>   -10.0274     0.0000    12.0000 </r>
       <r>   -10.0169     0.0000    12.0000 </r>
       <r>   -10.0064     0.0000    12.0000 </r>
       <r>    -9.9959     0.0000    12.0000 </r>
       <r>    -9.9855     0.0000    12.0000 </r>
       <r>    -9.9750     0.0000    12.0000 </r>
       <r>    -9.9645     0.0000    12.0000 </r>
       <r>    -9.9540     0.0000    12.0000 </r>
       <r>    -9.9436     0.0000    12.0000 </r>
       <r>    -9.9331     0.0000    12.0000 </r>
       <r>    -9.9226     0.0000    12.0000 </r>
       <r>    -9.9121     0.0000    12.0000 </r>
       <r>    -9.9017     0.0000    12.0000 </r>
       <r>    -9.8912     0.0000    12.0000 </r>
       <r>    -9.8807     0.0000    12.0000 </r>
       <r>    -9.8702     0.0000    12.0000 </r>
       <r>    -9.8598     0.0000    12.0000 </r>
       <r>    -9.8493     0.0000    12.0000 </r>
       <r>    -9.8388     0.0000    12.0000 </r>
       <r>    -9.8283     0.0000    12.0000 </r>
       <r>    -9.8179     0.0000    12.0000 </r>
       <r>    -9.8074     0.0000    12.0000 </r>
       <r>    -9.7969     0.0000    12.0000 </r>
       <r>    -9.7864     0.0000    12.0000 </r>
       <r>    -9.7760     0.0000    12.0000 </r>
       <r>    -9.7655     0.0000    12.0000 </r>
       <r>    -9.7550     0.0000    12.0000 </r>
       <r>    -9.7445     0.0000    12.0000 </r>
       <r>    -9.7341     0.0000    12.0000 </r>
       <r>    -9.7236     0.0000    12.0000 </r>
       <r>    -9.7131     0.0000    12.0000 </r>
       <r>    -9.7026     0.0000    12.0000 </r>
       <r>    -9.6922     0.0000    12.0000 </r>
       <r>    -9.6817     0.0000    12.0000 </r>
       <r>    -9.6712     0.0000    12.0000 </r>
       <r>    -9.6607     0.0000    12.0000 </r>
       <r>    -9.6503     0.0000    12.0000 </r>
       <r>    -9.6398     0.0000    12.0000 </r>
       <r>    -9.6293     0.0000    12.0000 </r>
       <r>    -9.6188     0.0000    12.0000 </r>
       <r>    -9.6084     0.0000    12.0000 </r>
       <r>    -9.5979     0.0000    12.0000 </r>
       <r>    -9.5874     0.0000    12.0000 </r>
       <r>    -9.5770     0.0000    12.0000 </r>
       <r>    -9.5665     0.0000    12.0000 </r>
       <r>    -9.5560     0.0000    12.0000 </r>
       <r>    -9.5455     0.0000    12.0000 </r>
       <r>    -9.5351     0.0000    12.0000 </r>
       <r>    -9.5246     0.0000    12.0000 </r>
       <r>    -9.5141     0.0000    12.0000 </r>
       <r>    -9.5036     0.0000    12.0000 </r>
       <r>    -9.4932     0.0013    12.0000 </r>
       <r>    -9.4827     0.2764    12.0029 </r>
       <r>    -9.4722     7.7969    12.0846 </r>
       <r>    -9.4617    32.2178    12.4220 </r>
       <r>    -9.4513    21.1730    12.6438 </r>
       <r>    -9.4408     2.1908    12.6668 </r>
       <r>    -9.4303     1.9367    12.6870 </r>
       <r>    -9.4198    13.1570    12.8249 </r>
       <r>    -9.4094    14.5772    12.9775 </r>
       <r>    -9.3989     8.6878    13.0685 </r>
       <r>    -9.3884    17.2400    13.2491 </r>
       <r>    -9.3779     7.6746    13.3295 </r>
       <r>    -9.3675     5.6727    13.3889 </r>
       <r>    -9.3570    35.1621    13.7572 </r>
       <r>    -9.3465    58.8482    14.3736 </r>
       <r>    -9.3360    25.6750    14.6426 </r>
       <r>    -9.3256     2.2766    14.6664 </r>
       <r>    -9.3151     0.7931    14.6747 </r>
       <r>    -9.3046    13.2075    14.8131 </r>
       <r>    -9.2941    34.4237    15.1736 </r>
       <r>    -9.2837    14.3378    15.3238 </r>
       <r>    -9.2732     0.9024    15.3333 </r>
       <r>    -9.2627     0.0077    15.3333 </r>
       <r>    -9.2522     0.0000    15.3333 </r>
       <r>    -9.2418     0.0000    15.3333 </r>
       <r>    -9.2313     0.0000    15.3333 </r>
       <r>    -9.2208     0.0000    15.3333 </r>
       <r>    -9.2103     0.0000    15.3333 </r>
       <r>    -9.1999     0.0000    15.3333 </r>
       <r>    -9.1894     0.0071    15.3334 </r>
       <r>    -9.1789     0.6666    15.3404 </r>
       <r>    -9.1684     8.6044    15.4305 </r>
       <r>    -9.1580    16.9587    15.6081 </r>
       <r>    -9.1475     5.3356    15.6640 </r>
       <r>    -9.1370     0.2497    15.6667 </r>
       <r>    -9.1266     0.0016    15.6667 </r>
       <r>    -9.1161     0.0000    15.6667 </r>
       <r>    -9.1056     0.0000    15.6667 </r>
       <r>    -9.0951     0.0000    15.6667 </r>
       <r>    -9.0847     0.0117    15.6668 </r>
       <r>    -9.0742     1.1798    15.6791 </r>
       <r>    -9.0637    16.2723    15.8496 </r>
       <r>    -9.0532    34.1573    16.2074 </r>
       <r>    -9.0428    11.6713    16.3296 </r>
       <r>    -9.0323     5.5784    16.3880 </r>
       <r>    -9.0218    16.8428    16.5645 </r>
       <r>    -9.0113    10.0620    16.6699 </r>
       <r>    -9.0009    11.1791    16.7870 </r>
       <r>    -8.9904    16.1990    16.9566 </r>
       <r>    -8.9799     3.9955    16.9985 </r>
       <r>    -8.9694     0.1446    17.0000 </r>
       <r>    -8.9590     0.0007    17.0000 </r>
       <r>    -8.9485     0.0000    17.0000 </r>
       <r>    -8.9380     0.0000    17.0000 </r>
       <r>    -8.9275     0.0000    17.0000 </r>
       <r>    -8.9171     0.0000    17.0000 </r>
       <r>    -8.9066     0.0000    17.0000 </r>
       <r>    -8.8961     0.0002    17.0000 </r>
       <r>    -8.8856     0.0727    17.0008 </r>
       <r>    -8.8752     3.6432    17.0389 </r>
       <r>    -8.8647    25.8971    17.3102 </r>
       <r>    -8.8542    28.8380    17.6122 </r>
       <r>    -8.8437     5.0676    17.6653 </r>
       <r>    -8.8333     0.1280    17.6667 </r>
       <r>    -8.8228     0.0017    17.6667 </r>
       <r>    -8.8123     0.2240    17.6690 </r>
       <r>    -8.8018     5.0437    17.7219 </r>
       <r>    -8.7914    16.8418    17.8983 </r>
       <r>    -8.7809     8.9728    17.9922 </r>
       <r>    -8.7704     0.7317    17.9999 </r>
       <r>    -8.7599     0.0082    18.0000 </r>
       <r>    -8.7495     0.0005    18.0000 </r>
       <r>    -8.7390     0.1431    18.0015 </r>
       <r>    -8.7285     5.4021    18.0581 </r>
       <r>    -8.7181    29.3850    18.3659 </r>
       <r>    -8.7076    25.2567    18.6304 </r>
       <r>    -8.6971     3.3951    18.6660 </r>
       <r>    -8.6866     0.0646    18.6667 </r>
       <r>    -8.6762     0.0002    18.6667 </r>
       <r>    -8.6657     0.0000    18.6667 </r>
       <r>    -8.6552     0.0000    18.6667 </r>
       <r>    -8.6447     0.0000    18.6667 </r>
       <r>    -8.6343     0.0000    18.6667 </r>
       <r>    -8.6238     0.0151    18.6668 </r>
       <r>    -8.6133     1.1325    18.6787 </r>
       <r>    -8.6028    12.6049    18.8107 </r>
       <r>    -8.5924    24.3481    19.0657 </r>
       <r>    -8.5819     9.0061    19.1601 </r>
       <r>    -8.5714     0.6216    19.1666 </r>
       <r>    -8.5609     0.0070    19.1667 </r>
       <r>    -8.5505     0.0000    19.1667 </r>
       <r>    -8.5400     0.0001    19.1667 </r>
       <r>    -8.5295     0.0380    19.1671 </r>
       <r>    -8.5190     1.3969    19.1817 </r>
       <r>    -8.5086     7.4177    19.2594 </r>
       <r>    -8.4981     6.3014    19.3254 </r>
       <r>    -8.4876     2.8422    19.3552 </r>
       <r>    -8.4771     8.1328    19.4404 </r>
       <r>    -8.4667     5.1775    19.4946 </r>
       <r>    -8.4562     0.5099    19.4999 </r>
       <r>    -8.4457     0.0070    19.5000 </r>
       <r>    -8.4352     0.0000    19.5000 </r>
       <r>    -8.4248     0.0000    19.5000 </r>
       <r>    -8.4143     0.0000    19.5000 </r>
       <r>    -8.4038     0.0000    19.5000 </r>
       <r>    -8.3933     0.0000    19.5000 </r>
       <r>    -8.3829     0.0000    19.5000 </r>
       <r>    -8.3724     0.0000    19.5000 </r>
       <r>    -8.3619     0.0000    19.5000 </r>
       <r>    -8.3514     0.0000    19.5000 </r>
       <r>    -8.3410     0.0000    19.5000 </r>
       <r>    -8.3305     0.0000    19.5000 </r>
       <r>    -8.3200     0.0000    19.5000 </r>
       <r>    -8.3095     0.0000    19.5000 </r>
       <r>    -8.2991     0.0000    19.5000 </r>
       <r>    -8.2886     0.0000    19.5000 </r>
       <r>    -8.2781     0.0000    19.5000 </r>
       <r>    -8.2677     0.0000    19.5000 </r>
       <r>    -8.2572     0.0000    19.5000 </r>
       <r>    -8.2467     0.0000    19.5000 </r>
       <r>    -8.2362     0.0000    19.5000 </r>
       <r>    -8.2258     0.0000    19.5000 </r>
       <r>    -8.2153     0.0000    19.5000 </r>
       <r>    -8.2048     0.0000    19.5000 </r>
       <r>    -8.1943     0.0000    19.5000 </r>
       <r>    -8.1839     0.0000    19.5000 </r>
       <r>    -8.1734     0.0000    19.5000 </r>
       <r>    -8.1629     0.0000    19.5000 </r>
       <r>    -8.1524     0.0000    19.5000 </r>
       <r>    -8.1420     0.0000    19.5000 </r>
       <r>    -8.1315     0.0000    19.5000 </r>
       <r>    -8.1210     0.0000    19.5000 </r>
       <r>    -8.1105     0.0000    19.5000 </r>
       <r>    -8.1001     0.0000    19.5000 </r>
       <r>    -8.0896     0.0000    19.5000 </r>
       <r>    -8.0791     0.0000    19.5000 </r>
       <r>    -8.0686     0.0000    19.5000 </r>
       <r>    -8.0582     0.0000    19.5000 </r>
       <r>    -8.0477     0.0000    19.5000 </r>
       <r>    -8.0372     0.0000    19.5000 </r>
       <r>    -8.0267     0.0000    19.5000 </r>
       <r>    -8.0163     0.0000    19.5000 </r>
       <r>    -8.0058     0.0000    19.5000 </r>
       <r>    -7.9953     0.0000    19.5000 </r>
       <r>    -7.9848     0.0000    19.5000 </r>
       <r>    -7.9744     0.0000    19.5000 </r>
       <r>    -7.9639     0.0000    19.5000 </r>
       <r>    -7.9534     0.0000    19.5000 </r>
       <r>    -7.9429     0.0000    19.5000 </r>
       <r>    -7.9325     0.0000    19.5000 </r>
       <r>    -7.9220     0.0000    19.5000 </r>
       <r>    -7.9115     0.0000    19.5000 </r>
       <r>    -7.9010     0.0000    19.5000 </r>
       <r>    -7.8906     0.0000    19.5000 </r>
       <r>    -7.8801     0.0000    19.5000 </r>
       <r>    -7.8696     0.0000    19.5000 </r>
       <r>    -7.8591     0.0000    19.5000 </r>
       <r>    -7.8487     0.0000    19.5000 </r>
       <r>    -7.8382     0.0000    19.5000 </r>
       <r>    -7.8277     0.0000    19.5000 </r>
       <r>    -7.8173     0.0000    19.5000 </r>
       <r>    -7.8068     0.0000    19.5000 </r>
       <r>    -7.7963     0.0000    19.5000 </r>
       <r>    -7.7858     0.0000    19.5000 </r>
       <r>    -7.7754     0.0000    19.5000 </r>
       <r>    -7.7649     0.0000    19.5000 </r>
       <r>    -7.7544     0.0000    19.5000 </r>
       <r>    -7.7439     0.0000    19.5000 </r>
       <r>    -7.7335     0.0000    19.5000 </r>
       <r>    -7.7230     0.0000    19.5000 </r>
       <r>    -7.7125     0.0000    19.5000 </r>
       <r>    -7.7020     0.0000    19.5000 </r>
       <r>    -7.6916     0.0000    19.5000 </r>
       <r>    -7.6811     0.0000    19.5000 </r>
       <r>    -7.6706     0.0000    19.5000 </r>
       <r>    -7.6601     0.0000    19.5000 </r>
       <r>    -7.6497     0.0000    19.5000 </r>
       <r>    -7.6392     0.0000    19.5000 </r>
       <r>    -7.6287     0.0000    19.5000 </r>
       <r>    -7.6182     0.0000    19.5000 </r>
       <r>    -7.6078     0.0000    19.5000 </r>
       <r>    -7.5973     0.0000    19.5000 </r>
       <r>    -7.5868     0.0000    19.5000 </r>
       <r>    -7.5763     0.0003    19.5000 </r>
       <r>    -7.5659     0.0761    19.5008 </r>
       <r>    -7.5554     2.7975    19.5301 </r>
       <r>    -7.5449    14.8401    19.6855 </r>
       <r>    -7.5344    12.4479    19.8159 </r>
       <r>    -7.5240     1.6314    19.8330 </r>
       <r>    -7.5135     0.0302    19.8333 </r>
       <r>    -7.5030     0.0001    19.8333 </r>
       <r>    -7.4925     0.0000    19.8333 </r>
       <r>    -7.4821     0.0000    19.8333 </r>
       <r>    -7.4716     0.0000    19.8333 </r>
       <r>    -7.4611     0.0000    19.8333 </r>
       <r>    -7.4506     0.0000    19.8333 </r>
       <r>    -7.4402     0.0000    19.8333 </r>
       <r>    -7.4297     0.0008    19.8333 </r>
       <r>    -7.4192     0.1968    19.8354 </r>
       <r>    -7.4088     6.4666    19.9031 </r>
       <r>    -7.3983    30.8524    20.2263 </r>
       <r>    -7.3878    23.3383    20.4708 </r>
       <r>    -7.3773     2.7468    20.4995 </r>
       <r>    -7.3669     0.0454    20.5000 </r>
       <r>    -7.3564     0.0001    20.5000 </r>
       <r>    -7.3459     0.0000    20.5000 </r>
       <r>    -7.3354     0.0000    20.5000 </r>
       <r>    -7.3250     0.0000    20.5000 </r>
       <r>    -7.3145     0.0000    20.5000 </r>
       <r>    -7.3040     0.0000    20.5000 </r>
       <r>    -7.2935     0.0000    20.5000 </r>
       <r>    -7.2831     0.0000    20.5000 </r>
       <r>    -7.2726     0.0000    20.5000 </r>
       <r>    -7.2621     0.0002    20.5000 </r>
       <r>    -7.2516     0.0522    20.5005 </r>
       <r>    -7.2412     2.2525    20.5241 </r>
       <r>    -7.2307    14.0423    20.6712 </r>
       <r>    -7.2202    18.8426    20.8686 </r>
       <r>    -7.2097    31.3384    21.1968 </r>
       <r>    -7.1993    25.4321    21.4632 </r>
       <r>    -7.1888     3.4444    21.4993 </r>
       <r>    -7.1783     0.0661    21.5000 </r>
       <r>    -7.1678     0.0002    21.5000 </r>
       <r>    -7.1574     0.0000    21.5000 </r>
       <r>    -7.1469     0.0000    21.5000 </r>
       <r>    -7.1364     0.0000    21.5000 </r>
       <r>    -7.1259     0.0001    21.5000 </r>
       <r>    -7.1155     0.0296    21.5003 </r>
       <r>    -7.1050     2.1155    21.5225 </r>
       <r>    -7.0945    21.0259    21.7427 </r>
       <r>    -7.0840    32.2996    22.0810 </r>
       <r>    -7.0736     7.8927    22.1637 </r>
       <r>    -7.0631     0.2826    22.1667 </r>
       <r>    -7.0526     0.0013    22.1667 </r>
       <r>    -7.0421     0.0000    22.1667 </r>
       <r>    -7.0317     0.0000    22.1667 </r>
       <r>    -7.0212     0.0000    22.1667 </r>
       <r>    -7.0107     0.0003    22.1667 </r>
       <r>    -7.0002     0.0764    22.1675 </r>
       <r>    -6.9898     2.8044    22.1968 </r>
       <r>    -6.9793    14.8504    22.3524 </r>
       <r>    -6.9688    12.4351    22.4826 </r>
[...]
        <r>  0.0078  0.0080  0.0121  0.0118  0.0000  0.0000  0.0000  0.0000  0.0000 </r>
        <r>  0.0142  0.0145  0.0221  0.0065  0.0000  0.0000  0.0000  0.0000  0.0000 </r>
        <r>  0.0078  0.0080  0.0121  0.0118  0.0000  0.0000  0.0000  0.0000  0.0000 </r>
        <r>  0.0142  0.0145  0.0221  0.0065  0.0000  0.0000  0.0000  0.0000  0.0000 </r>
        <r>  0.0093  0.0074  0.0173  0.0054  0.0000  0.0000  0.0000  0.0000  0.0000 </r>
        <r>  0.0051  0.0041  0.0095  0.0098  0.0000  0.0000  0.0000  0.0000  0.0000 </r>
        <r>  0.0096  0.0126  0.0120  0.0033  0.0000  0.0000  0.0000  0.0000  0.0000 </r>
        <r>  0.0053  0.0069  0.0066  0.0061  0.0000  0.0000  0.0000  0.0000  0.0000 </r>
       </set>
       <set comment="band 25">
        <r>  0.0054  0.0136  0.0065  0.0031  0.0000  0.0000  0.0000  0.0000  0.0000 </r>
        <r>  0.0031  0.0078  0.0037  0.0054  0.0000  0.0000  0.0000  0.0000  0.0000 </r>
        <r>  0.0018  0.0186  0.0054  0.0021  0.0000  0.0000  0.0000  0.0000  0.0000 </r>
        <r>  0.0010  0.0106  0.0031  0.0037  0.0000  0.0000  0.0000  0.0000  0.0000 </r>
        <r>  0.0048  0.0255  0.0067  0.0092  0.0000  0.0000  0.0000  0.0000  0.0000 </r>
        <r>  0.0085  0.0449  0.0118  0.0053  0.0000  0.0000  0.0000  0.0000  0.0000 </r>
        <r>  0.0048  0.0255  0.0067  0.0092  0.0000  0.0000  0.0000  0.0000  0.0000 </r>
        <r>  0.0085  0.0449  0.0118  0.0053  0.0000  0.0000  0.0000  0.0000  0.0000 </r>
        <r>  0.0018  0.0186  0.0054  0.0021  0.0000  0.0000  0.0000  0.0000  0.0000 </r>
        <r>  0.0010  0.0106  0.0031  0.0037  0.0000  0.0000  0.0000  0.0000  0.0000 </r>
        <r>  0.0054  0.0136  0.0065  0.0031  0.0000  0.0000  0.0000  0.0000  0.0000 </r>
        <r>  0.0031  0.0078  0.0037  0.0054  0.0000  0.0000  0.0000  0.0000  0.0000 </r>
       </set>
       <set comment="band 26">
        <r>  0.0031  0.0078  0.0037  0.0054  0.0000  0.0000  0.0000  0.0000  0.0000 </r>
        <r>  0.0054  0.0136  0.0065  0.0031  0.0000  0.0000  0.0000  0.0000  0.0000 </r>
        <r>  0.0010  0.0106  0.0031  0.0037  0.0000  0.0000  0.0000  0.0000  0.0000 </r>
        <r>  0.0018  0.0186  0.0054  0.0021  0.0000  0.0000  0.0000  0.0000  0.0000 </r>
        <r>  0.0085  0.0449  0.0118  0.0053  0.0000  0.0000  0.0000  0.0000  0.0000 </r>
        <r>  0.0048  0.0255  0.0067  0.0092  0.0000  0.0000  0.0000  0.0000  0.0000 </r>
        <r>  0.0085  0.0449  0.0118  0.0053  0.0000  0.0000  0.0000  0.0000  0.0000 </r>
        <r>  0.0048  0.0255  0.0067  0.0092  0.0000  0.0000  0.0000  0.0000  0.0000 </r>
        <r>  0.0010  0.0106  0.0031  0.0037  0.0000  0.0000  0.0000  0.0000  0.0000 </r>
        <r>  0.0018  0.0186  0.0054  0.0021  0.0000  0.0000  0.0000  0.0000  0.0000 </r>
        <r>  0.0031  0.0078  0.0037  0.0054  0.0000  0.0000  0.0000  0.0000  0.0000 </r>
        <r>  0.0054  0.0136  0.0065  0.0031  0.0000  0.0000  0.0000  0.0000  0.0000 </r>
       </set>
       <set comment="band 27">
        <r>  0.0060  0.0354  0.0066  0.0058  0.0000  0.0000  0.0000  0.0000  0.0000 </r>
        <r>  0.0064  0.0379  0.0070  0.0054  0.0000  0.0000  0.0000  0.0000  0.0000 </r>
        <r>  0.0057  0.0332  0.0058  0.0051  0.0000  0.0000  0.0000  0.0000  0.0000 </r>
        <r>  0.0061  0.0355  0.0062  0.0048  0.0000  0.0000  0.0000  0.0000  0.0000 </r>
        <r>  0.0007  0.0014  0.0032  0.0020  0.0000  0.0000  0.0000  0.0000  0.0000 </r>
        <r>  0.0006  0.0013  0.0030  0.0022  0.0000  0.0000  0.0000  0.0000  0.0000 </r>
        <r>  0.0007  0.0014  0.0032  0.0020  0.0000  0.0000  0.0000  0.0000  0.0000 </r>
        <r>  0.0006  0.0013  0.0030  0.0022  0.0000  0.0000  0.0000  0.0000  0.0000 </r>
        <r>  0.0057  0.0332  0.0058  0.0051  0.0000  0.0000  0.0000  0.0000  0.0000 </r>
        <r>  0.0061  0.0355  0.0062  0.0048  0.0000  0.0000  0.0000  0.0000  0.0000 </r>
        <r>  0.0060  0.0354  0.0066  0.0058  0.0000  0.0000  0.0000  0.0000  0.0000 </r>
        <r>  0.0064  0.0379  0.0070  0.0054  0.0000  0.0000  0.0000  0.0000  0.0000 </r>
       </set>
       <set comment="band 28">
        <r>  0.0064  0.0379  0.0070  0.0054  0.0000  0.0000  0.0000  0.0000  0.0000 </r>
        <r>  0.0060  0.0354  0.0066  0.0058  0.0000  0.0000  0.0000  0.0000  0.0000 </r>
        <r>  0.0061  0.0355  0.0062  0.0048  0.0000  0.0000  0.0000  0.0000  0.0000 </r>
        <r>  0.0057  0.0332  0.0058  0.0051  0.0000  0.0000  0.0000  0.0000  0.0000 </r>
        <r>  0.0006  0.0013  0.0030  0.0022  0.0000  0.0000  0.0000  0.0000  0.0000 </r>
        <r>  0.0007  0.0014  0.0032  0.0020  0.0000  0.0000  0.0000  0.0000  0.0000 </r>
        <r>  0.0006  0.0013  0.0030  0.0022  0.0000  0.0000  0.0000  0.0000  0.0000 </r>
        <r>  0.0007  0.0014  0.0032  0.0020  0.0000  0.0000  0.0000  0.0000  0.0000 </r>
        <r>  0.0061  0.0355  0.0062  0.0048  0.0000  0.0000  0.0000  0.0000  0.0000 </r>
        <r>  0.0057  0.0332  0.0058  0.0051  0.0000  0.0000  0.0000  0.0000  0.0000 </r>
        <r>  0.0064  0.0379  0.0070  0.0054  0.0000  0.0000  0.0000  0.0000  0.0000 </r>
        <r>  0.0060  0.0354  0.0066  0.0058  0.0000  0.0000  0.0000  0.0000  0.0000 </r>
       </set>
       <set comment="band 29">
        <r>  0.0045  0.0342  0.0059  0.0022  0.0000  0.0000  0.0000  0.0000  0.0000 </r>
        <r>  0.0023  0.0177  0.0031  0.0042  0.0000  0.0000  0.0000  0.0000  0.0000 </r>
        <r>  0.0058  0.0289  0.0065  0.0029  0.0000  0.0000  0.0000  0.0000  0.0000 </r>
        <r>  0.0030  0.0149  0.0034  0.0056  0.0000  0.0000  0.0000  0.0000  0.0000 </r>
        <r>  0.0036  0.0235  0.0025  0.0043  0.0000  0.0000  0.0000  0.0000  0.0000 </r>
        <r>  0.0070  0.0455  0.0049  0.0022  0.0000  0.0000  0.0000  0.0000  0.0000 </r>
        <r>  0.0036  0.0235  0.0025  0.0043  0.0000  0.0000  0.0000  0.0000  0.0000 </r>
        <r>  0.0070  0.0455  0.0049  0.0022  0.0000  0.0000  0.0000  0.0000  0.0000 </r>
        <r>  0.0058  0.0289  0.0065  0.0029  0.0000  0.0000  0.0000  0.0000  0.0000 </r>
        <r>  0.0030  0.0149  0.0034  0.0056  0.0000  0.0000  0.0000  0.0000  0.0000 </r>
        <r>  0.0045  0.0342  0.0059  0.0022  0.0000  0.0000  0.0000  0.0000  0.0000 </r>
        <r>  0.0023  0.0177  0.0031  0.0042  0.0000  0.0000  0.0000  0.0000  0.0000 </r>
       </set>
       <set comment="band 30">
        <r>  0.0023  0.0177  0.0031  0.0042  0.0000  0.0000  0.0000  0.0000  0.0000 </r>
        <r>  0.0045  0.0342  0.0059  0.0022  0.0000  0.0000  0.0000  0.0000  0.0000 </r>
        <r>  0.0030  0.0149  0.0034  0.0056  0.0000  0.0000  0.0000  0.0000  0.0000 </r>
        <r>  0.0058  0.0289  0.0065  0.0029  0.0000  0.0000  0.0000  0.0000  0.0000 </r>
        <r>  0.0070  0.0455  0.0049  0.0022  0.0000  0.0000  0.0000  0.0000  0.0000 </r>
        <r>  0.0036  0.0235  0.0025  0.0043  0.0000  0.0000  0.0000  0.0000  0.0000 </r>
        <r>  0.0070  0.0455  0.0049  0.0022  0.0000  0.0000  0.0000  0.0000  0.0000 </r>
        <r>  0.0036  0.0235  0.0025  0.0043  0.0000  0.0000  0.0000  0.0000  0.0000 </r>
        <r>  0.0030  0.0149  0.0034  0.0056  0.0000  0.0000  0.0000  0.0000  0.0000 </r>
        <r>  0.0058  0.0289  0.0065  0.0029  0.0000  0.0000  0.0000  0.0000  0.0000 </r>
        <r>  0.0023  0.0177  0.0031  0.0042  0.0000  0.0000  0.0000  0.0000  0.0000 </r>
        <r>  0.0045  0.0342  0.0059  0.0022  0.0000  0.0000  0.0000  0.0000  0.0000 </r>
       </set>
       <set comment="band 31">
        <r>  0.0006  0.0022  0.0002  0.0064  0.0000  0.0000  0.0000  0.0000  0.0000 </r>
        <r>  0.0086  0.0329  0.0029  0.0004  0.0000  0.0000  0.0000  0.0000  0.0000 </r>
        <r>  0.0010  0.0013  0.0003  0.0079  0.0000  0.0000  0.0000  0.0000  0.0000 </r>
        <r>  0.0153  0.0194  0.0042  0.0005  0.0000  0.0000  0.0000  0.0000  0.0000 </r>
        <r>  0.0226  0.0406  0.0023  0.0007  0.0000  0.0000  0.0000  0.0000  0.0000 </r>
        <r>  0.0015  0.0028  0.0002  0.0106  0.0000  0.0000  0.0000  0.0000  0.0000 </r>
        <r>  0.0226  0.0406  0.0023  0.0007  0.0000  0.0000  0.0000  0.0000  0.0000 </r>
        <r>  0.0015  0.0028  0.0002  0.0106  0.0000  0.0000  0.0000  0.0000  0.0000 </r>
        <r>  0.0010  0.0013  0.0003  0.0079  0.0000  0.0000  0.0000  0.0000  0.0000 </r>
        <r>  0.0153  0.0194  0.0042  0.0005  0.0000  0.0000  0.0000  0.0000  0.0000 </r>
        <r>  0.0006  0.0022  0.0002  0.0064  0.0000  0.0000  0.0000  0.0000  0.0000 </r>
        <r>  0.0086  0.0329  0.0029  0.0004  0.0000  0.0000  0.0000  0.0000  0.0000 </r>
       </set>
       <set comment="band 32">
        <r>  0.0086  0.0329  0.0029  0.0004  0.0000  0.0000  0.0000  0.0000  0.0000 </r>
        <r>  0.0006  0.0022  0.0002  0.0064  0.0000  0.0000  0.0000  0.0000  0.0000 </r>
        <r>  0.0153  0.0194  0.0042  0.0005  0.0000  0.0000  0.0000  0.0000  0.0000 </r>
        <r>  0.0010  0.0013  0.0003  0.0079  0.0000  0.0000  0.0000  0.0000  0.0000 </r>
        <r>  0.0015  0.0028  0.0002  0.0106  0.0000  0.0000  0.0000  0.0000  0.0000 </r>
        <r>  0.0226  0.0406  0.0023  0.0007  0.0000  0.0000  0.0000  0.0000  0.0000 </r>
        <r>  0.0015  0.0028  0.0002  0.0106  0.0000  0.0000  0.0000  0.0000  0.0000 </r>
        <r>  0.0226  0.0406  0.0023  0.0007  0.0000  0.0000  0.0000  0.0000  0.0000 </r>
        <r>  0.0153  0.0194  0.0042  0.0005  0.0000  0.0000  0.0000  0.0000  0.0000 </r>
        <r>  0.0010  0.0013  0.0003  0.0079  0.0000  0.0000  0.0000  0.0000  0.0000 </r>
        <r>  0.0086  0.0329  0.0029  0.0004  0.0000  0.0000  0.0000  0.0000  0.0000 </r>
        <r>  0.0006  0.0022  0.0002  0.0064  0.0000  0.0000  0.0000  0.0000  0.0000 </r>
       </set>
       <set comment="band 33">
        <r>  0.0064  0.0234  0.0001  0.0031  0.0000  0.0000  0.0000  0.0000  0.0000 </r>
        <r>  0.0069  0.0254  0.0001  0.0029  0.0000  0.0000  0.0000  0.0000  0.0000 </r>
        <r>  0.0101  0.0176  0.0005  0.0052  0.0000  0.0000  0.0000  0.0000  0.0000 </r>
        <r>  0.0110  0.0191  0.0006  0.0048  0.0000  0.0000  0.0000  0.0000  0.0000 </r>
        <r>  0.0018  0.0089  0.0020  0.0022  0.0000  0.0000  0.0000  0.0000  0.0000 </r>
        <r>  0.0016  0.0082  0.0019  0.0024  0.0000  0.0000  0.0000  0.0000  0.0000 </r>
        <r>  0.0018  0.0089  0.0020  0.0022  0.0000  0.0000  0.0000  0.0000  0.0000 </r>
        <r>  0.0016  0.0082  0.0019  0.0024  0.0000  0.0000  0.0000  0.0000  0.0000 </r>
        <r>  0.0101  0.0176  0.0005  0.0052  0.0000  0.0000  0.0000  0.0000  0.0000 </r>
        <r>  0.0110  0.0191  0.0006  0.0048  0.0000  0.0000  0.0000  0.0000  0.0000 </r>
        <r>  0.0064  0.0234  0.0001  0.0031  0.0000  0.0000  0.0000  0.0000  0.0000 </r>
        <r>  0.0069  0.0254  0.0001  0.0029  0.0000  0.0000  0.0000  0.0000  0.0000 </r>
       </set>
       <set comment="band 34">
        <r>  0.0069  0.0254  0.0001  0.0029  0.0000  0.0000  0.0000  0.0000  0.0000 </r>
        <r>  0.0064  0.0234  0.0001  0.0031  0.0000  0.0000  0.0000  0.0000  0.0000 </r>
        <r>  0.0110  0.0191  0.0006  0.0048  0.0000  0.0000  0.0000  0.0000  0.0000 </r>
        <r>  0.0101  0.0176  0.0005  0.0052  0.0000  0.0000  0.0000  0.0000  0.0000 </r>
        <r>  0.0016  0.0082  0.0019  0.0024  0.0000  0.0000  0.0000  0.0000  0.0000 </r>
        <r>  0.0018  0.0089  0.0020  0.0022  0.0000  0.0000  0.0000  0.0000  0.0000 </r>
        <r>  0.0016  0.0082  0.0019  0.0024  0.0000  0.0000  0.0000  0.0000  0.0000 </r>
        <r>  0.0018  0.0089  0.0020  0.0022  0.0000  0.0000  0.0000  0.0000  0.0000 </r>
        <r>  0.0110  0.0191  0.0006  0.0048  0.0000  0.0000  0.0000  0.0000  0.0000 </r>
        <r>  0.0101  0.0176  0.0005  0.0052  0.0000  0.0000  0.0000  0.0000  0.0000 </r>
        <r>  0.0069  0.0254  0.0001  0.0029  0.0000  0.0000  0.0000  0.0000  0.0000 </r>
        <r>  0.0064  0.0234  0.0001  0.0031  0.0000  0.0000  0.0000  0.0000  0.0000 </r>
       </set>
       <set comment="band 35">
        <r>  0.0088  0.0154  0.0018  0.0015  0.0000  0.0000  0.0000  0.0000  0.0000 </r>
        <r>  0.0028  0.0049  0.0006  0.0048  0.0000  0.0000  0.0000  0.0000  0.0000 </r>
        <r>  0.0030  0.0320  0.0005  0.0007  0.0000  0.0000  0.0000  0.0000  0.0000 </r>
        <r>  0.0009  0.0101  0.0002  0.0022  0.0000  0.0000  0.0000  0.0000  0.0000 </r>
        <r>  0.0028  0.0101  0.0015  0.0022  0.0000  0.0000  0.0000  0.0000  0.0000 </r>
        <r>  0.0089  0.0321  0.0048  0.0007  0.0000  0.0000  0.0000  0.0000  0.0000 </r>
        <r>  0.0028  0.0101  0.0015  0.0022  0.0000  0.0000  0.0000  0.0000  0.0000 </r>
        <r>  0.0089  0.0321  0.0048  0.0007  0.0000  0.0000  0.0000  0.0000  0.0000 </r>
        <r>  0.0030  0.0320  0.0005  0.0007  0.0000  0.0000  0.0000  0.0000  0.0000 </r>
        <r>  0.0009  0.0101  0.0002  0.0022  0.0000  0.0000  0.0000  0.0000  0.0000 </r>
        <r>  0.0088  0.0154  0.0018  0.0015  0.0000  0.0000  0.0000  0.0000  0.0000 </r>
        <r>  0.0028  0.0049  0.0006  0.0048  0.0000  0.0000  0.0000  0.0000  0.0000 </r>
       </set>
       <set comment="band 36">
        <r>  0.0028  0.0049  0.0006  0.0048  0.0000  0.0000  0.0000  0.0000  0.0000 </r>
        <r>  0.0088  0.0154  0.0018  0.0015  0.0000  0.0000  0.0000  0.0000  0.0000 </r>
        <r>  0.0009  0.0101  0.0002  0.0022  0.0000  0.0000  0.0000  0.0000  0.0000 </r>
        <r>  0.0030  0.0320  0.0005  0.0007  0.0000  0.0000  0.0000  0.0000  0.0000 </r>
        <r>  0.0089  0.0321  0.0048  0.0007  0.0000  0.0000  0.0000  0.0000  0.0000 </r>
        <r>  0.0028  0.0101  0.0015  0.0022  0.0000  0.0000  0.0000  0.0000  0.0000 </r>
        <r>  0.0089  0.0321  0.0048  0.0007  0.0000  0.0000  0.0000  0.0000  0.0000 </r>
        <r>  0.0028  0.0101  0.0015  0.0022  0.0000  0.0000  0.0000  0.0000  0.0000 </r>
        <r>  0.0009  0.0101  0.0002  0.0022  0.0000  0.0000  0.0000  0.0000  0.0000 </r>
        <r>  0.0030  0.0320  0.0005  0.0007  0.0000  0.0000  0.0000  0.0000  0.0000 </r>
        <r>  0.0028  0.0049  0.0006  0.0048  0.0000  0.0000  0.0000  0.0000  0.0000 </r>
        <r>  0.0088  0.0154  0.0018  0.0015  0.0000  0.0000  0.0000  0.0000  0.0000 </r>
       </set>
       <set comment="band 37">
        <r>  0.0020  0.0001  0.0170  0.0021  0.0000  0.0000  0.0000  0.0000  0.0000 </r>
        <r>  0.0004  0.0000  0.0036  0.0097  0.0000  0.0000  0.0000  0.0000  0.0000 </r>
        <r>  0.0024  0.0012  0.0214  0.0023  0.0000  0.0000  0.0000  0.0000  0.0000 </r>
        <r>  0.0005  0.0003  0.0046  0.0106  0.0000  0.0000  0.0000  0.0000  0.0000 </r>
        <r>  0.0008  0.0002  0.0095  0.0225  0.0000  0.0000  0.0000  0.0000  0.0000 </r>
        <r>  0.0036  0.0007  0.0443  0.0048  0.0000  0.0000  0.0000  0.0000  0.0000 </r>
        <r>  0.0008  0.0002  0.0095  0.0225  0.0000  0.0000  0.0000  0.0000  0.0000 </r>
        <r>  0.0036  0.0007  0.0443  0.0048  0.0000  0.0000  0.0000  0.0000  0.0000 </r>
        <r>  0.0024  0.0012  0.0214  0.0023  0.0000  0.0000  0.0000  0.0000  0.0000 </r>
        <r>  0.0005  0.0003  0.0046  0.0106  0.0000  0.0000  0.0000  0.0000  0.0000 </r>
        <r>  0.0020  0.0001  0.0170  0.0021  0.0000  0.0000  0.0000  0.0000  0.0000 </r>
        <r>  0.0004  0.0000  0.0036  0.0097  0.0000  0.0000  0.0000  0.0000  0.0000 </r>
       </set>
       <set comment="band 38">
        <r>  0.0004  0.0000  0.0036  0.0097  0.0000  0.0000  0.0000  0.0000  0.0000 </r>
        <r>  0.0020  0.0001  0.0170  0.0021  0.0000  0.0000  0.0000  0.0000  0.0000 </r>
        <r>  0.0005  0.0003  0.0046  0.0106  0.0000  0.0000  0.0000  0.0000  0.0000 </r>
        <r>  0.0024  0.0012  0.0214  0.0023  0.0000  0.0000  0.0000  0.0000  0.0000 </r>
        <r>  0.0036  0.0007  0.0443  0.0048  0.0000  0.0000  0.0000  0.0000  0.0000 </r>
        <r>  0.0008  0.0002  0.0095  0.0225  0.0000  0.0000  0.0000  0.0000  0.0000 </r>
        <r>  0.0036  0.0007  0.0443  0.0048  0.0000  0.0000  0.0000  0.0000  0.0000 </r>
        <r>  0.0008  0.0002  0.0095  0.0225  0.0000  0.0000  0.0000  0.0000  0.0000 </r>
        <r>  0.0005  0.0003  0.0046  0.0106  0.0000  0.0000  0.0000  0.0000  0.0000 </r>
        <r>  0.0024  0.0012  0.0214  0.0023  0.0000  0.0000  0.0000  0.0000  0.0000 </r>
        <r>  0.0004  0.0000  0.0036  0.0097  0.0000  0.0000  0.0000  0.0000  0.0000 </r>
        <r>  0.0020  0.0001  0.0170  0.0021  0.0000  0.0000  0.0000  0.0000  0.0000 </r>
       </set>
       <set comment="band 39">
        <r>  0.0008  0.0021  0.0207  0.0103  0.0000  0.0000  0.0000  0.0000  0.0000 </r>
        <r>  0.0011  0.0031  0.0302  0.0071  0.0000  0.0000  0.0000  0.0000  0.0000 </r>
        <r>  0.0009  0.0021  0.0213  0.0110  0.0000  0.0000  0.0000  0.0000  0.0000 </r>
        <r>  0.0014  0.0030  0.0311  0.0075  0.0000  0.0000  0.0000  0.0000  0.0000 </r>
        <r>  0.0009  0.0003  0.0002  0.0003  0.0000  0.0000  0.0000  0.0000  0.0000 </r>
        <r>  0.0006  0.0002  0.0002  0.0005  0.0000  0.0000  0.0000  0.0000  0.0000 </r>
        <r>  0.0009  0.0003  0.0002  0.0003  0.0000  0.0000  0.0000  0.0000  0.0000 </r>
        <r>  0.0006  0.0002  0.0002  0.0005  0.0000  0.0000  0.0000  0.0000  0.0000 </r>
        <r>  0.0009  0.0021  0.0213  0.0110  0.0000  0.0000  0.0000  0.0000  0.0000 </r>
        <r>  0.0014  0.0030  0.0311  0.0075  0.0000  0.0000  0.0000  0.0000  0.0000 </r>
        <r>  0.0008  0.0021  0.0207  0.0103  0.0000  0.0000  0.0000  0.0000  0.0000 </r>
        <r>  0.0011  0.0031  0.0302  0.0071  0.0000  0.0000  0.0000  0.0000  0.0000 </r>
       </set>
       <set comment="band 40">
        <r>  0.0011  0.0031  0.0302  0.0070  0.0000  0.0000  0.0000  0.0000  0.0000 </r>
        <r>  0.0008  0.0021  0.0207  0.0103  0.0000  0.0000  0.0000  0.0000  0.0000 </r>
        <r>  0.0014  0.0030  0.0311  0.0075  0.0000  0.0000  0.0000  0.0000  0.0000 </r>
        <r>  0.0009  0.0021  0.0213  0.0110  0.0000  0.0000  0.0000  0.0000  0.0000 </r>
        <r>  0.0006  0.0002  0.0002  0.0005  0.0000  0.0000  0.0000  0.0000  0.0000 </r>
        <r>  0.0009  0.0003  0.0002  0.0003  0.0000  0.0000  0.0000  0.0000  0.0000 </r>
        <r>  0.0006  0.0002  0.0002  0.0005  0.0000  0.0000  0.0000  0.0000  0.0000 </r>
        <r>  0.0009  0.0003  0.0002  0.0003  0.0000  0.0000  0.0000  0.0000  0.0000 </r>
        <r>  0.0014  0.0030  0.0311  0.0075  0.0000  0.0000  0.0000  0.0000  0.0000 </r>
        <r>  0.0009  0.0021  0.0213  0.0110  0.0000  0.0000  0.0000  0.0000  0.0000 </r>
        <r>  0.0011  0.0031  0.0302  0.0071  0.0000  0.0000  0.0000  0.0000  0.0000 </r>
        <r>  0.0008  0.0021  0.0207  0.0103  0.0000  0.0000  0.0000  0.0000  0.0000 </r>
       </set>
      </set>
     </set>
    </set>
   </array>
  </projected>
 </calculation>
 <structure name="finalpos" >
  <crystal>
   <varray name="basis" >
    <v>       3.34288600       0.00000000       0.00000000 </v>
    <v>       0.00000000      32.60240900       0.00000000 </v>
    <v>       0.00000000       0.00000000       4.37483100 </v>
   </varray>
   <i name="volume">    476.79592902 </i>
   <varray name="rec_basis" >
    <v>       0.29914272       0.00000000       0.00000000 </v>
    <v>       0.00000000       0.03067258       0.00000000 </v>
    <v>       0.00000000       0.00000000       0.22858026 </v>
   </varray>
  </crystal>
  <varray name="positions" >
   <v>       0.00000000       0.30672600       0.91892400 </v>
   <v>       0.50000000       0.30672600       0.58107600 </v>
   <v>       0.00000000       0.37246700       0.08107600 </v>
   <v>       0.50000000       0.37246700       0.41892400 </v>
   <v>       0.50000000       0.46712900       0.91892400 </v>
   <v>       0.00000000       0.46712900       0.58107600 </v>
   <v>       0.50000000       0.53287100       0.08107600 </v>
   <v>       0.00000000       0.53287100       0.41892400 </v>
   <v>       0.00000000       0.62753300       0.91892400 </v>
   <v>       0.50000000       0.62753300       0.58107600 </v>
   <v>       0.00000000       0.69327400       0.08107600 </v>
   <v>       0.50000000       0.69327400       0.41892400 </v>
  </varray>
 </structure>
</modeling>
