Automatically generated mesh
      12
Reciprocal lattice
    0.00000000000000    0.00000000000000    0.00000000000000             1
    0.16666666666667    0.00000000000000    0.00000000000000             2
    0.33333333333333    0.00000000000000    0.00000000000000             2
    0.50000000000000    0.00000000000000    0.00000000000000             1
    0.00000000000000    0.00000000000000    0.20000000000000             2
    0.16666666666667    0.00000000000000    0.20000000000000             4
    0.33333333333333    0.00000000000000    0.20000000000000             4
    0.50000000000000    0.00000000000000    0.20000000000000             2
    0.00000000000000    0.00000000000000    0.40000000000000             2
    0.16666666666667    0.00000000000000    0.40000000000000             4
    0.33333333333333    0.00000000000000    0.40000000000000             4
    0.50000000000000    0.00000000000000    0.40000000000000             2
