       N       E                     dE             d eps       ncg     rms          rms(c)
DAV:   1     0.356190205248E+03    0.35619E+03   -0.20358E+04  1280   0.104E+03
DAV:   2    -0.233916690209E+02   -0.37958E+03   -0.36542E+03  1776   0.207E+02
DAV:   3    -0.629732826710E+02   -0.39582E+02   -0.38753E+02  1520   0.699E+01
DAV:   4    -0.645265730883E+02   -0.15533E+01   -0.15401E+01  1872   0.153E+01
DAV:   5    -0.645698309480E+02   -0.43258E-01   -0.43181E-01  1968   0.240E+00    0.177E+01
DAV:   6    -0.642350470605E+02    0.33478E+00   -0.21060E-01  1664   0.179E+00    0.105E+01
DAV:   7    -0.640884534263E+02    0.14659E+00   -0.40301E-01  1624   0.237E+00    0.526E-01
DAV:   8    -0.640894661401E+02   -0.10127E-02   -0.28364E-02  1672   0.692E-01    0.329E-01
DAV:   9    -0.640891648989E+02    0.30124E-03   -0.21290E-03  1864   0.193E-01    0.222E-01
DAV:  10    -0.640889169391E+02    0.24796E-03   -0.11822E-03  1600   0.131E-01    0.852E-02
DAV:  11    -0.640888392500E+02    0.77689E-04   -0.23190E-04  1696   0.662E-02    0.515E-02
DAV:  12    -0.640889112641E+02   -0.72014E-04   -0.71624E-05  1568   0.326E-02    0.153E-02
DAV:  13    -0.640890513863E+02   -0.14012E-03   -0.91973E-05  1560   0.308E-02    0.228E-02
DAV:  14    -0.640892063426E+02   -0.15496E-03   -0.13527E-05  1184   0.147E-02    0.902E-03
DAV:  15    -0.640894223347E+02   -0.21599E-03   -0.26873E-05  1304   0.145E-02    0.125E-02
DAV:  16    -0.640894510158E+02   -0.28681E-04   -0.19709E-06  1104   0.570E-03    0.377E-03
DAV:  17    -0.640895193277E+02   -0.68312E-04   -0.26927E-06  1136   0.553E-03    0.193E-03
DAV:  18    -0.640895288317E+02   -0.95040E-05   -0.36119E-07   992   0.253E-03
   1 F= -.66180018E+02 E0= -.66179847E+02  d E =-.342232E-03
