 vasp.5.4.4.18Apr17-6-g9f103f2a35 (build Jun 20 2017 18:00:50) complex          
  
 executed on             LinuxIFC date 2018.03.22  15:18:11
 running on   32 total cores
 distrk:  each k-point on   32 cores,    1 groups
 distr:  one band on NCORES_PER_BAND=   8 cores,    4 groups


--------------------------------------------------------------------------------------------------------


 INCAR:
 POTCAR:    PAW_PBE P 06Sep2000                   
 POTCAR:    PAW_PBE P 06Sep2000                   
   VRHFIN =P : s2p3                                                             
   LEXCH  = PE                                                                  
   EATOM  =   176.0430 eV,   12.9388 Ry                                         
                                                                                
   TITEL  = PAW_PBE P 06Sep2000                                                 
   LULTRA =        F    use ultrasoft PP ?                                      
   IUNSCR =        1    unscreen: 0-lin 1-nonlin 2-no                           
   RPACOR =    1.500    partial core radius                                     
   POMASS =   30.974; ZVAL   =    5.000    mass and valenz                      
   RCORE  =    1.900    outmost cutoff radius                                   
   RWIGS  =    2.330; RWIGS  =    1.233    wigner-seitz radius (au A)           
   ENMAX  =  255.040; ENMIN  =  191.280 eV                                      
   ICORE  =        2    local potential                                         
   LCOR   =        T    correct aug charges                                     
   LPAW   =        T    paw PP                                                  
   EAUG   =  342.924                                                            
   DEXC   =    0.000                                                            
   RMAX   =    1.935    core radius for proj-oper                               
   RAUG   =    1.300    factor for augmentation sphere                          
   RDEP   =    1.931    radius for radial grids                                 
   RDEPT  =    1.794    core radius for aug-charge                              
                                                                                
   Atomic configuration                                                         
    6 entries                                                                   
     n  l   j            E        occ.                                          
     1  0  0.50     -2084.0982   2.0000                                         
     2  0  0.50      -173.9859   2.0000                                         
     2  1  1.50      -124.4865   6.0000                                         
     3  0  0.50       -13.9692   2.0000                                         
     3  1  0.50        -5.5067   3.0000                                         
     3  2  1.50        -5.4423   0.0000                                         
   Description                                                                  
     l       E           TYP  RCUT    TYP  RCUT                                 
     0    -13.9691527     23  1.900                                             
     0    -11.7794650     23  1.900                                             
     1     -5.5066937     23  1.900                                             
     1     -0.2556953     23  1.900                                             
     2     -5.4423304     23  1.900                                             
  local pseudopotential read in
  partial core-charges read in
  partial kinetic energy density read in
  atomic valenz-charges read in
  non local Contribution for L=           0  read in
    real space projection operators read in
  non local Contribution for L=           0  read in
    real space projection operators read in
  non local Contribution for L=           1  read in
    real space projection operators read in
  non local Contribution for L=           1  read in
    real space projection operators read in
    PAW grid and wavefunctions read in
 
   number of l-projection  operators is LMAX  =           4
   number of lm-projection operators is LMMAX =           8
 
  PAW_PBE P 06Sep2000                   :
 energy of atom  1       EATOM= -176.0430
 kinetic energy error for atom=    0.0019 (will be added to EATOM!!)
 
 
 POSCAR: P12                                     
  positions in direct lattice
  No initial velocities read in
 exchange correlation table for  LEXCH =        8
   RHO(1)=    0.500       N(1)  =     2000
   RHO(2)=  100.500       N(2)  =     4000
 


--------------------------------------------------------------------------------------------------------


 ion  position               nearest neighbor table
   1  0.000  0.307  0.919-   2 2.23   2 2.23   3 2.26
   2  0.500  0.307  0.581-   1 2.23   1 2.23   4 2.26
   3  0.000  0.372  0.081-   4 2.23   4 2.23   1 2.26
   4  0.500  0.372  0.419-   3 2.23   3 2.23   2 2.26
   5  0.000  0.467  0.919-   6 2.23   6 2.23   7 2.26
   6  0.500  0.467  0.581-   5 2.23   5 2.23   8 2.26
   7  0.000  0.533  0.081-   8 2.23   8 2.23   5 2.26
   8  0.500  0.533  0.419-   7 2.23   7 2.23   6 2.26
   9  0.000  0.628  0.919-  10 2.23  10 2.23  11 2.26
  10  0.500  0.628  0.581-   9 2.23   9 2.23  12 2.26
  11  0.000  0.693  0.081-  12 2.23  12 2.23   9 2.26
  12  0.500  0.693  0.419-  11 2.23  11 2.23  10 2.26
 
  LATTYP: Found a simple orthorhombic cell.
 ALAT       =     3.3428860000
 B/A-ratio  =     1.3086988309
 C/A-ratio  =     9.7527732026
  
  Lattice vectors:
  
 A1 = (  -3.3428860000,   0.0000000000,   0.0000000000)
 A2 = (   0.0000000000,   0.0000000000,  -4.3748310000)
 A3 = (   0.0000000000, -32.6024090000,   0.0000000000)


Analysis of symmetry for initial positions (statically):
=====================================================================
 Subroutine PRICEL returns:
 Original cell was already a primitive cell.
 

 Routine SETGRP: Setting up the symmetry group for a 
 simple orthorhombic supercell.


 Subroutine GETGRP returns: Found  8 space group operations
 (whereof  4 operations were pure point group operations)
 out of a pool of  8 trial point group operations.


The static configuration has the point symmetry C_2h.
 The point group associated with its full space group is D_2h.


Analysis of symmetry for dynamics (positions and initial velocities):
=====================================================================
 Subroutine PRICEL returns:
 Original cell was already a primitive cell.
 

 Routine SETGRP: Setting up the symmetry group for a 
 simple orthorhombic supercell.


 Subroutine GETGRP returns: Found  8 space group operations
 (whereof  4 operations were pure point group operations)
 out of a pool of  8 trial point group operations.


The dynamic configuration has the point symmetry C_2h.
 The point group associated with its full space group is D_2h.


 Subroutine INISYM returns: Found  8 space group operations
 (whereof  4 operations are pure point group operations),
 and found     1 'primitive' translations

 
 
 KPOINTS: Automatic mesh                          

Automatic generation of k-mesh.
Space group operators:
 irot       det(A)        alpha          n_x          n_y          n_z        tau_x        tau_y        tau_z
    1     1.000000     0.000001     1.000000     0.000000     0.000000     0.000000     0.000000     0.000000
    2    -1.000000     0.000001     1.000000     0.000000     0.000000     0.000000     0.000000     0.000000
    3     1.000000   179.999999     1.000000     0.000000     0.000000     0.000000     0.000000     0.000000
    4    -1.000000   179.999999     1.000000     0.000000     0.000000     0.000000     0.000000     0.000000
    5     1.000000   179.999999     0.000000     1.000000     0.000000    -0.500000     0.000000    -0.500000
    6    -1.000000   179.999999     0.000000     1.000000     0.000000    -0.500000     0.000000    -0.500000
    7     1.000000   179.999999     0.000000     0.000000     1.000000    -0.500000     0.000000    -0.500000
    8    -1.000000   179.999999     0.000000     0.000000     1.000000    -0.500000     0.000000    -0.500000
 
 Subroutine IBZKPT returns following result:
 ===========================================
 
 Found     16 irreducible k-points:
 
 Following reciprocal coordinates:
            Coordinates               Weight
  0.000000  0.000000  0.000000      1.000000
  0.142857  0.000000  0.000000      2.000000
  0.285714  0.000000  0.000000      2.000000
  0.428571  0.000000  0.000000      2.000000
  0.000000  0.000000  0.166667      2.000000
  0.142857  0.000000  0.166667      4.000000
  0.285714  0.000000  0.166667      4.000000
  0.428571  0.000000  0.166667      4.000000
  0.000000  0.000000  0.333333      2.000000
  0.142857  0.000000  0.333333      4.000000
  0.285714  0.000000  0.333333      4.000000
  0.428571  0.000000  0.333333      4.000000
  0.000000  0.000000  0.500000      1.000000
  0.142857  0.000000  0.500000      2.000000
  0.285714  0.000000  0.500000      2.000000
  0.428571  0.000000  0.500000      2.000000
 
 Following cartesian coordinates:
            Coordinates               Weight
  0.000000  0.000000  0.000000      1.000000
  0.042735  0.000000  0.000000      2.000000
  0.085469  0.000000  0.000000      2.000000
  0.128204  0.000000  0.000000      2.000000
  0.000000  0.000000  0.038097      2.000000
  0.042735  0.000000  0.038097      4.000000
  0.085469  0.000000  0.038097      4.000000
  0.128204  0.000000  0.038097      4.000000
  0.000000  0.000000  0.076193      2.000000
  0.042735  0.000000  0.076193      4.000000
  0.085469  0.000000  0.076193      4.000000
  0.128204  0.000000  0.076193      4.000000
  0.000000  0.000000  0.114290      1.000000
  0.042735  0.000000  0.114290      2.000000
  0.085469  0.000000  0.114290      2.000000
  0.128204  0.000000  0.114290      2.000000
 


--------------------------------------------------------------------------------------------------------




 Dimension of arrays:
   k-points           NKPTS =     16   k-points in BZ     NKDIM =     16   number of bands    NBANDS=     40
   number of dos      NEDOS =   2000   number of ions     NIONS =     12
   non local maximal  LDIM  =      4   non local SUM 2l+1 LMDIM =      8
   total plane-waves  NPLWV =  77760
   max r-space proj   IRMAX =      1   max aug-charges    IRDMAX=   5162
   dimension x,y,z NGX =    18 NGY =  180 NGZ =   24
   dimension x,y,z NGXF=    36 NGYF=  360 NGZF=   48
   support grid    NGXF=    36 NGYF=  360 NGZF=   48
   ions per type =              12
   NGX,Y,Z   is equivalent  to a cutoff of   8.95,  9.18,  9.12 a.u.
   NGXF,Y,Z  is equivalent  to a cutoff of  17.90, 18.36, 18.24 a.u.

 SYSTEM =  Generic Input                           
 POSCAR =  P12                                     

 Startparameter for this run:
   NWRITE =      2    write-flag & timer
   PREC   = normal    normal or accurate (medium, high low for compatibility)
   ISTART =      0    job   : 0-new  1-cont  2-samecut
   ICHARG =      2    charge: 1-file 2-atom 10-const
   ISPIN  =      1    spin polarized calculation?
   LNONCOLLINEAR =      F non collinear calculations
   LSORBIT =      F    spin-orbit coupling
   INIWAV =      1    electr: 0-lowe 1-rand  2-diag
   LASPH  =      T    aspherical Exc in radial PAW
   METAGGA=      F    non-selfconsistent MetaGGA calc.

 Electronic Relaxation 1
   ENCUT  =  450.0 eV  33.07 Ry    5.75 a.u.   5.78 56.39  7.57*2*pi/ulx,y,z
   ENINI  =  450.0     initial cutoff
   ENAUG  =  342.9 eV  augmentation charge cutoff
   NELM   =    200;   NELMIN=  2; NELMDL=  0     # of ELM steps 
   EDIFF  = 0.1E-04   stopping-criterion for ELM
   LREAL  =      F    real-space projection
   NLSPLINE    = F    spline interpolate recip. space projectors
   LCOMPAT=      F    compatible to vasp.4.4
   GGA_COMPAT  = T    GGA compatible to vasp.4.4-vasp.4.6
   LMAXPAW     = -100 max onsite density
   LMAXMIX     =    2 max onsite mixed and CHGCAR
   VOSKOWN=      0    Vosko Wilk Nusair interpolation
   ROPT   =    0.00000
 Ionic relaxation
   EDIFFG = -.2E-01   stopping-criterion for IOM
   NSW    =      0    number of steps for IOM
   NBLOCK =      1;   KBLOCK =      1    inner block; outer block 
   IBRION =     -1    ionic relax: 0-MD 1-quasi-New 2-CG
   NFREE  =      1    steps in history (QN), initial steepest desc. (CG)
   ISIF   =      3    stress and relaxation
   IWAVPR =     11    prediction:  0-non 1-charg 2-wave 3-comb
   ISYM   =      2    0-nonsym 1-usesym 2-fastsym
   LCORR  =      T    Harris-Foulkes like correction to forces

   POTIM  = 0.5000    time-step for ionic-motion
   TEIN   =    0.0    initial temperature
   TEBEG  =    0.0;   TEEND  =   0.0 temperature during run
   SMASS  =  -3.00    Nose mass-parameter (am)
   estimated Nose-frequenzy (Omega)   =  0.10E-29 period in steps =****** mass=  -0.255E-27a.u.
   SCALEE = 1.0000    scale energy and forces
   NPACO  =    256;   APACO  = 16.0  distance and # of slots for P.C.
   PSTRESS=    0.0 pullay stress

  Mass of Ions in am
   POMASS =  30.97
  Ionic Valenz
   ZVAL   =   5.00
  Atomic Wigner-Seitz radii
   RWIGS  =  -1.00
  virtual crystal weights 
   VCA    =   1.00
   NELECT =      60.0000    total number of electrons
   NUPDOWN=      -1.0000    fix difference up-down

 DOS related values:
   EMIN   =  10.00;   EMAX   =-10.00  energy-range for DOS
   EFERMI =   0.00
   ISMEAR =     0;   SIGMA  =   0.01  broadening in eV -4-tet -1-fermi 0-gaus

 Electronic relaxation 2 (details)
   IALGO  =     38    algorithm
   LDIAG  =      T    sub-space diagonalisation (order eigenvalues)
   LSUBROT=      F    optimize rotation matrix (better conditioning)
   TURBO    =      0    0=normal 1=particle mesh
   IRESTART =      0    0=no restart 2=restart with 2 vectors
   NREBOOT  =      0    no. of reboots
   NMIN     =      0    reboot dimension
   EREF     =   0.00    reference energy to select bands
   IMIX   =      4    mixing-type and parameters
     AMIX     =   0.40;   BMIX     =  1.00
     AMIX_MAG =   1.60;   BMIX_MAG =  1.00
     AMIN     =   0.10
     WC   =   100.;   INIMIX=   1;  MIXPRE=   1;  MAXMIX= -45

 Intra band minimization:
   WEIMIN = 0.0000     energy-eigenvalue tresh-hold
   EBREAK =  0.63E-07  absolut break condition
   DEPER  =   0.30     relativ break condition  

   TIME   =   0.40     timestep for ELM

  volume/ion in A,a.u.               =      39.73       268.13
  Fermi-wavevector in a.u.,A,eV,Ry     =   0.820379  1.550291  9.157011  0.673021
  Thomas-Fermi vector in A             =   1.931350
 
 Write flags
   LWAVE        =      T    write WAVECAR
   LDOWNSAMPLE  =      F    k-point downsampling of WAVECAR
   LCHARG       =      T    write CHGCAR
   LVTOT        =      F    write LOCPOT, total local potential
   LVHAR        =      T    write LOCPOT, Hartree potential only
   LELF         =      F    write electronic localiz. function (ELF)
   LORBIT       =     11    0 simple, 1 ext, 2 COOP (PROOUT), +10 PAW based schemes


 Dipole corrections
   LMONO  =      F    monopole corrections only (constant potential shift)
   LDIPOL =      F    correct potential (dipole corrections)
   IDIPOL =      0    1-x, 2-y, 3-z, 4-all directions 
   EPSILON=  1.0000000 bulk dielectric constant

 Core level calculations are selected ICORELEVEL =  1
 Exchange correlation treatment:
   GGA     =    PE    GGA type
   LEXCH   =     8    internal setting for exchange type
   VOSKOWN=      0    Vosko Wilk Nusair interpolation
   LHFCALC =     F    Hartree Fock is set to
   LHFONE  =     F    Hartree Fock one center treatment
   AEXX    =    0.0000 exact exchange contribution

 Linear response parameters
   LEPSILON=     F    determine dielectric tensor
   LRPA    =     F    only Hartree local field effects (RPA)
   LNABLA  =     F    use nabla operator in PAW spheres
   LVEL    =     F    velocity operator in full k-point grid
   LINTERFAST=   F  fast interpolation
   KINTER  =     0    interpolate to denser k-point grid
   CSHIFT  =0.1000    complex shift for real part using Kramers Kronig
   OMEGAMAX=  -1.0    maximum frequency
   DEG_THRESHOLD= 0.2000000E-02 threshold for treating states as degnerate
   RTIME   =   -0.100 relaxation time in fs
  (WPLASMAI=    0.000 imaginary part of plasma frequency in eV, 0.658/RTIME)
   DFIELD  = 0.0000000 0.0000000 0.0000000 field for delta impulse in time
 
 Orbital magnetization related:
   ORBITALMAG=     F  switch on orbital magnetization
   LCHIMAG   =     F  perturbation theory with respect to B field
   DQ        =  0.001000  dq finite difference perturbation B field
   LLRAUG    =     F  two centre corrections for induced B field



--------------------------------------------------------------------------------------------------------


 Static calculation
 charge density and potential will be updated during run
 non-spin polarized calculation
 Variant of blocked Davidson
 Davidson routine will perform the subspace rotation
 perform sub-space diagonalisation
    after iterative eigenvector-optimisation
 modified Broyden-mixing scheme, WC =      100.0
 initial mixing is a Kerker type mixing with AMIX =  0.4000 and BMIX =      1.0000
 Hartree-type preconditioning will be used
 using additional bands           10
 reciprocal scheme for non local part
 use partial core corrections
 calculate Harris-corrections to forces 
   (improved forces if not selfconsistent)
 use gradient corrections 
 use of overlap-Matrix (Vanderbilt PP)
 Gauss-broadening in eV      SIGMA  =   0.01


--------------------------------------------------------------------------------------------------------


  energy-cutoff  :      450.00
  volume of cell :      476.80
      direct lattice vectors                 reciprocal lattice vectors
     3.342886000  0.000000000  0.000000000     0.299142717  0.000000000  0.000000000
     0.000000000 32.602409000  0.000000000     0.000000000  0.030672580  0.000000000
     0.000000000  0.000000000  4.374831000     0.000000000  0.000000000  0.228580258

  length of vectors
     3.342886000 32.602409000  4.374831000     0.299142717  0.030672580  0.228580258


 
 k-points in units of 2pi/SCALE and weight: Automatic mesh                          
   0.00000000  0.00000000  0.00000000       0.024
   0.04273467  0.00000000  0.00000000       0.048
   0.08546935  0.00000000  0.00000000       0.048
   0.12820402  0.00000000  0.00000000       0.048
   0.00000000  0.00000000  0.03809671       0.048
   0.04273467  0.00000000  0.03809671       0.095
   0.08546935  0.00000000  0.03809671       0.095
   0.12820402  0.00000000  0.03809671       0.095
   0.00000000  0.00000000  0.07619342       0.048
   0.04273467  0.00000000  0.07619342       0.095
   0.08546935  0.00000000  0.07619342       0.095
   0.12820402  0.00000000  0.07619342       0.095
   0.00000000  0.00000000  0.11429013       0.024
   0.04273467  0.00000000  0.11429013       0.048
   0.08546935  0.00000000  0.11429013       0.048
   0.12820402  0.00000000  0.11429013       0.048
 
 k-points in reciprocal lattice and weights: Automatic mesh                          
   0.00000000  0.00000000  0.00000000       0.024
   0.14285714  0.00000000  0.00000000       0.048
   0.28571429  0.00000000  0.00000000       0.048
   0.42857143  0.00000000  0.00000000       0.048
   0.00000000  0.00000000  0.16666667       0.048
   0.14285714  0.00000000  0.16666667       0.095
   0.28571429  0.00000000  0.16666667       0.095
   0.42857143  0.00000000  0.16666667       0.095
   0.00000000  0.00000000  0.33333333       0.048
   0.14285714  0.00000000  0.33333333       0.095
   0.28571429  0.00000000  0.33333333       0.095
   0.42857143  0.00000000  0.33333333       0.095
   0.00000000  0.00000000  0.50000000       0.024
   0.14285714  0.00000000  0.50000000       0.048
   0.28571429  0.00000000  0.50000000       0.048
   0.42857143  0.00000000  0.50000000       0.048
 
 position of ions in fractional coordinates (direct lattice) 
   0.00000000  0.30672600  0.91892400
   0.50000000  0.30672600  0.58107600
   0.00000000  0.37246700  0.08107600
   0.50000000  0.37246700  0.41892400
   0.00000000  0.46712900  0.91892400
   0.50000000  0.46712900  0.58107600
   0.00000000  0.53287100  0.08107600
   0.50000000  0.53287100  0.41892400
   0.00000000  0.62753300  0.91892400
   0.50000000  0.62753300  0.58107600
   0.00000000  0.69327400  0.08107600
   0.50000000  0.69327400  0.41892400
 
 position of ions in cartesian coordinates  (Angst):
   0.00000000 10.00000650  4.02013720
   1.67144300 10.00000650  2.54210930
   0.00000000 12.14332147  0.35469380
   1.67144300 12.14332147  1.83272170
   0.00000000 15.22953071  4.02013720
   1.67144300 15.22953071  2.54210930
   0.00000000 17.37287829  0.35469380
   1.67144300 17.37287829  1.83272170
   0.00000000 20.45908753  4.02013720
   1.67144300 20.45908753  2.54210930
   0.00000000 22.60240250  0.35469380
   1.67144300 22.60240250  1.83272170
 


--------------------------------------------------------------------------------------------------------


 k-point  1 :   0.0000 0.0000 0.0000  plane waves:   10373
 k-point  2 :   0.1429 0.0000 0.0000  plane waves:   10377
 k-point  3 :   0.2857 0.0000 0.0000  plane waves:   10340
 k-point  4 :   0.4286 0.0000 0.0000  plane waves:   10334
 k-point  5 :   0.0000 0.0000 0.1667  plane waves:   10367
 k-point  6 :   0.1429 0.0000 0.1667  plane waves:   10356
 k-point  7 :   0.2857 0.0000 0.1667  plane waves:   10340
 k-point  8 :   0.4286 0.0000 0.1667  plane waves:   10345
 k-point  9 :   0.0000 0.0000 0.3333  plane waves:   10325
 k-point 10 :   0.1429 0.0000 0.3333  plane waves:   10297
 k-point 11 :   0.2857 0.0000 0.3333  plane waves:   10324
 k-point 12 :   0.4286 0.0000 0.3333  plane waves:   10350
 k-point 13 :   0.0000 0.0000 0.5000  plane waves:   10272
 k-point 14 :   0.1429 0.0000 0.5000  plane waves:   10266
 k-point 15 :   0.2857 0.0000 0.5000  plane waves:   10306
 k-point 16 :   0.4286 0.0000 0.5000  plane waves:   10390

 maximum and minimum number of plane-waves per node :      1309     1267

 maximum number of plane-waves:     10390
 maximum index in each direction: 
   IXMAX=    5   IYMAX=   56   IZMAX=    7
   IXMIN=   -6   IYMIN=  -56   IZMIN=   -8


 parallel 3D FFT for wavefunctions:
    minimum data exchange during FFTs selected (reduces bandwidth)
 parallel 3D FFT for charge:
    minimum data exchange during FFTs selected (reduces bandwidth)


 total amount of memory used by VASP MPI-rank0    38699. kBytes
=======================================================================

   base      :      30000. kBytes
   nonl-proj :       1595. kBytes
   fftplans  :       1467. kBytes
   grid      :       2232. kBytes
   one-center:          6. kBytes
   wavefun   :       3399. kBytes
 
     INWAV:  cpu time    0.0000: real time    0.0000
 Broyden mixing: mesh for mixing (old mesh)
   NGX = 11   NGY =113   NGZ = 15
  (NGX  = 36   NGY  =360   NGZ  = 48)
  gives a total of  18645 points

 initial charge density was supplied:
 charge density of overlapping atoms calculated
 number of electron      60.0000000 magnetization 
 keeping initial charge density in first step


--------------------------------------------------------------------------------------------------------


 Maximum index for augmentation-charges          651 (set IRDMAX)


--------------------------------------------------------------------------------------------------------


 First call to EWALD:  gamma=   0.227
 Maximum number of real-space cells 6x 1x 5
 Maximum number of reciprocal cells 1x10x 2

    FEWALD:  cpu time    0.0017: real time    0.0017


--------------------------------------- Iteration      1(   1)  ---------------------------------------


    POTLOK:  cpu time    0.0319: real time    0.0377
    SETDIJ:  cpu time    0.0644: real time    0.0658
     EDDAV:  cpu time    0.6940: real time    0.7085
       DOS:  cpu time    0.0007: real time    0.0007
    --------------------------------------------
      LOOP:  cpu time    0.7910: real time    0.8126

 eigenvalue-minimisations  :  1280
 total energy-change (2. order) : 0.3561902E+03  (-0.2035763E+04)
 number of electron      60.0000000 magnetization 
 augmentation part       60.0000000 magnetization 

 Free energy of the ion-electron system (eV)
  ---------------------------------------------------
  alpha Z        PSCENC =        30.28014394
  Ewald energy   TEWEN  =     14975.37070712
  -Hartree energ DENC   =    -16930.57457869
  -exchange      EXHF   =         0.00000000
  -V(xc)+E(xc)   XCENC  =        40.42313226
  PAW double counting   =      1677.12035881    -1579.18296132
  entropy T*S    EENTRO =        -0.00059285
  eigenvalues    EBANDS =        30.26025804
  atomic energy  EATOM  =      2112.49373795
  Solvation  Ediel_sol  =         0.00000000
  ---------------------------------------------------
  free energy    TOTEN  =       356.19020525 eV

  energy without entropy =      356.19079810  energy(sigma->0) =      356.19050167


--------------------------------------------------------------------------------------------------------




--------------------------------------- Iteration      1(   2)  ---------------------------------------


     EDDAV:  cpu time    0.8424: real time    0.8632
       DOS:  cpu time    0.0007: real time    0.0007
    --------------------------------------------
      LOOP:  cpu time    0.8431: real time    0.8638

 eigenvalue-minimisations  :  1776
 total energy-change (2. order) :-0.3795819E+03  (-0.3654192E+03)
 number of electron      60.0000000 magnetization 
 augmentation part       60.0000000 magnetization 

 Free energy of the ion-electron system (eV)
  ---------------------------------------------------
  alpha Z        PSCENC =        30.28014394
  Ewald energy   TEWEN  =     14975.37070712
  -Hartree energ DENC   =    -16930.57457869
  -exchange      EXHF   =         0.00000000
  -V(xc)+E(xc)   XCENC  =        40.42313226
  PAW double counting   =      1677.12035881    -1579.18296132
  entropy T*S    EENTRO =        -0.00056422
  eigenvalues    EBANDS =      -349.32164485
  atomic energy  EATOM  =      2112.49373795
  Solvation  Ediel_sol  =         0.00000000
  ---------------------------------------------------
  free energy    TOTEN  =       -23.39166902 eV

  energy without entropy =      -23.39110480  energy(sigma->0) =      -23.39138691


--------------------------------------------------------------------------------------------------------




--------------------------------------- Iteration      1(   3)  ---------------------------------------


     EDDAV:  cpu time    0.7736: real time    0.7750
       DOS:  cpu time    0.0007: real time    0.0007
    --------------------------------------------
      LOOP:  cpu time    0.7743: real time    0.7757

 eigenvalue-minimisations  :  1520
 total energy-change (2. order) :-0.3958161E+02  (-0.3875335E+02)
 number of electron      60.0000000 magnetization 
 augmentation part       60.0000000 magnetization 

 Free energy of the ion-electron system (eV)
  ---------------------------------------------------
  alpha Z        PSCENC =        30.28014394
  Ewald energy   TEWEN  =     14975.37070712
  -Hartree energ DENC   =    -16930.57457869
  -exchange      EXHF   =         0.00000000
  -V(xc)+E(xc)   XCENC  =        40.42313226
  PAW double counting   =      1677.12035881    -1579.18296132
  entropy T*S    EENTRO =        -0.00026866
  eigenvalues    EBANDS =      -388.90355406
  atomic energy  EATOM  =      2112.49373795
  Solvation  Ediel_sol  =         0.00000000
  ---------------------------------------------------
  free energy    TOTEN  =       -62.97328267 eV

  energy without entropy =      -62.97301401  energy(sigma->0) =      -62.97314834


--------------------------------------------------------------------------------------------------------




--------------------------------------- Iteration      1(   4)  ---------------------------------------


     EDDAV:  cpu time    0.9003: real time    0.9027
       DOS:  cpu time    0.0007: real time    0.0007
    --------------------------------------------
      LOOP:  cpu time    0.9011: real time    0.9035

 eigenvalue-minimisations  :  1872
 total energy-change (2. order) :-0.1553290E+01  (-0.1540149E+01)
 number of electron      60.0000000 magnetization 
 augmentation part       60.0000000 magnetization 

 Free energy of the ion-electron system (eV)
  ---------------------------------------------------
  alpha Z        PSCENC =        30.28014394
  Ewald energy   TEWEN  =     14975.37070712
  -Hartree energ DENC   =    -16930.57457869
  -exchange      EXHF   =         0.00000000
  -V(xc)+E(xc)   XCENC  =        40.42313226
  PAW double counting   =      1677.12035881    -1579.18296132
  entropy T*S    EENTRO =        -0.00002740
  eigenvalues    EBANDS =      -390.45708575
  atomic energy  EATOM  =      2112.49373795
  Solvation  Ediel_sol  =         0.00000000
  ---------------------------------------------------
  free energy    TOTEN  =       -64.52657309 eV

  energy without entropy =      -64.52654569  energy(sigma->0) =      -64.52655939


--------------------------------------------------------------------------------------------------------




--------------------------------------- Iteration      1(   5)  ---------------------------------------


     EDDAV:  cpu time    0.9247: real time    0.9271
       DOS:  cpu time    0.0007: real time    0.0007
    CHARGE:  cpu time    0.0418: real time    0.0418
    MIXING:  cpu time    0.0007: real time    0.0007
    --------------------------------------------
      LOOP:  cpu time    0.9679: real time    0.9704

 eigenvalue-minimisations  :  1968
 total energy-change (2. order) :-0.4325786E-01  (-0.4318128E-01)
 number of electron      59.9999987 magnetization 
 augmentation part       -6.5356002 magnetization 

 Broyden mixing:
  rms(total) = 0.17726E+01    rms(broyden)= 0.17726E+01
  rms(prec ) = 0.17781E+01
  weight for this iteration     100.00

 Free energy of the ion-electron system (eV)
  ---------------------------------------------------
  alpha Z        PSCENC =        30.28014394
  Ewald energy   TEWEN  =     14975.37070712
  -Hartree energ DENC   =    -16930.57457869
  -exchange      EXHF   =         0.00000000
  -V(xc)+E(xc)   XCENC  =        40.42313226
  PAW double counting   =      1677.12035881    -1579.18296132
  entropy T*S    EENTRO =        -0.00004332
  eigenvalues    EBANDS =      -390.50032768
  atomic energy  EATOM  =      2112.49373795
  Solvation  Ediel_sol  =         0.00000000
  ---------------------------------------------------
  free energy    TOTEN  =       -64.56983095 eV

  energy without entropy =      -64.56978762  energy(sigma->0) =      -64.56980929


--------------------------------------------------------------------------------------------------------




--------------------------------------- Iteration      1(   6)  ---------------------------------------


    POTLOK:  cpu time    0.0192: real time    0.0210
    SETDIJ:  cpu time    0.0662: real time    0.0662
     EDDAV:  cpu time    0.8197: real time    0.8208
       DOS:  cpu time    0.0007: real time    0.0007
    CHARGE:  cpu time    0.0411: real time    0.0411
    MIXING:  cpu time    0.0007: real time    0.0007
    --------------------------------------------
      LOOP:  cpu time    0.9476: real time    0.9505

 eigenvalue-minimisations  :  1664
 total energy-change (2. order) : 0.3347839E+00  (-0.2106012E-01)
 number of electron      59.9999987 magnetization 
 augmentation part       -6.4981139 magnetization 

 Broyden mixing:
  rms(total) = 0.10498E+01    rms(broyden)= 0.10498E+01
  rms(prec ) = 0.10530E+01
  weight for this iteration     100.00

 eigenvalues of (default mixing * dielectric matrix)
  average eigenvalue GAMMA=   2.4404
  2.4404

 Free energy of the ion-electron system (eV)
  ---------------------------------------------------
  alpha Z        PSCENC =        30.28014394
  Ewald energy   TEWEN  =     14975.37070712
  -Hartree energ DENC   =    -16940.27507902
  -exchange      EXHF   =         0.00000000
  -V(xc)+E(xc)   XCENC  =        41.48534010
  PAW double counting   =      3149.09330776    -3051.62165085
  entropy T*S    EENTRO =        -0.00011641
  eigenvalues    EBANDS =      -381.06143765
  atomic energy  EATOM  =      2112.49373795
  Solvation  Ediel_sol  =         0.00000000
  ---------------------------------------------------
  free energy    TOTEN  =       -64.23504706 eV

  energy without entropy =      -64.23493065  energy(sigma->0) =      -64.23498885


--------------------------------------------------------------------------------------------------------




--------------------------------------- Iteration      1(   7)  ---------------------------------------


    POTLOK:  cpu time    0.0190: real time    0.0202
    SETDIJ:  cpu time    0.0661: real time    0.0661
     EDDAV:  cpu time    0.8078: real time    0.8088
       DOS:  cpu time    0.0007: real time    0.0007
    CHARGE:  cpu time    0.0412: real time    0.0412
    MIXING:  cpu time    0.0007: real time    0.0007
    --------------------------------------------
      LOOP:  cpu time    0.9354: real time    0.9377

 eigenvalue-minimisations  :  1624
 total energy-change (2. order) : 0.1465936E+00  (-0.4030060E-01)
 number of electron      59.9999987 magnetization 
 augmentation part       -6.4473569 magnetization 

 Broyden mixing:
  rms(total) = 0.52637E-01    rms(broyden)= 0.52636E-01
  rms(prec ) = 0.53745E-01
  weight for this iteration     100.00

 eigenvalues of (default mixing * dielectric matrix)
  average eigenvalue GAMMA=   1.7420
  0.9996  2.4844

 Free energy of the ion-electron system (eV)
  ---------------------------------------------------
  alpha Z        PSCENC =        30.28014394
  Ewald energy   TEWEN  =     14975.37070712
  -Hartree energ DENC   =    -16959.06971526
  -exchange      EXHF   =         0.00000000
  -V(xc)+E(xc)   XCENC  =        43.19007290
  PAW double counting   =      6283.84358552    -6186.94030082
  entropy T*S    EENTRO =        -0.00032470
  eigenvalues    EBANDS =      -363.25636007
  atomic energy  EATOM  =      2112.49373795
  Solvation  Ediel_sol  =         0.00000000
  ---------------------------------------------------
  free energy    TOTEN  =       -64.08845343 eV

  energy without entropy =      -64.08812873  energy(sigma->0) =      -64.08829108


--------------------------------------------------------------------------------------------------------




--------------------------------------- Iteration      1(   8)  ---------------------------------------


    POTLOK:  cpu time    0.0192: real time    0.0206
    SETDIJ:  cpu time    0.0661: real time    0.0661
     EDDAV:  cpu time    0.8181: real time    0.8194
       DOS:  cpu time    0.0007: real time    0.0007
    CHARGE:  cpu time    0.0411: real time    0.0411
    MIXING:  cpu time    0.0007: real time    0.0007
    --------------------------------------------
      LOOP:  cpu time    0.9459: real time    0.9485

 eigenvalue-minimisations  :  1672
 total energy-change (2. order) :-0.1012714E-02  (-0.2836413E-02)
 number of electron      59.9999987 magnetization 
 augmentation part       -6.4547131 magnetization 

 Broyden mixing:
  rms(total) = 0.32948E-01    rms(broyden)= 0.32948E-01
  rms(prec ) = 0.33708E-01
  weight for this iteration     100.00

 eigenvalues of (default mixing * dielectric matrix)
  average eigenvalue GAMMA=   1.5438
  2.5151  1.0581  1.0581

 Free energy of the ion-electron system (eV)
  ---------------------------------------------------
  alpha Z        PSCENC =        30.28014394
  Ewald energy   TEWEN  =     14975.37070712
  -Hartree energ DENC   =    -16959.54920831
  -exchange      EXHF   =         0.00000000
  -V(xc)+E(xc)   XCENC  =        43.21853682
  PAW double counting   =      6376.00895465    -6279.05780640
  entropy T*S    EENTRO =        -0.00034387
  eigenvalues    EBANDS =      -362.85418803
  atomic energy  EATOM  =      2112.49373795
  Solvation  Ediel_sol  =         0.00000000
  ---------------------------------------------------
  free energy    TOTEN  =       -64.08946614 eV

  energy without entropy =      -64.08912227  energy(sigma->0) =      -64.08929420


--------------------------------------------------------------------------------------------------------




--------------------------------------- Iteration      1(   9)  ---------------------------------------


    POTLOK:  cpu time    0.0205: real time    0.0207
    SETDIJ:  cpu time    0.0661: real time    0.0661
     EDDAV:  cpu time    0.8894: real time    0.8905
       DOS:  cpu time    0.0007: real time    0.0007
    CHARGE:  cpu time    0.0420: real time    0.0420
    MIXING:  cpu time    0.0008: real time    0.0008
    --------------------------------------------
      LOOP:  cpu time    1.0195: real time    1.0207

 eigenvalue-minimisations  :  1864
 total energy-change (2. order) : 0.3012412E-03  (-0.2128996E-03)
 number of electron      59.9999987 magnetization 
 augmentation part       -6.4568792 magnetization 

 Broyden mixing:
  rms(total) = 0.22214E-01    rms(broyden)= 0.22214E-01
  rms(prec ) = 0.22792E-01
  weight for this iteration     100.00

 eigenvalues of (default mixing * dielectric matrix)
  average eigenvalue GAMMA=   1.6870
  2.1656  2.1656  0.9511  1.4658

 Free energy of the ion-electron system (eV)
  ---------------------------------------------------
  alpha Z        PSCENC =        30.28014394
  Ewald energy   TEWEN  =     14975.37070712
  -Hartree energ DENC   =    -16960.37776377
  -exchange      EXHF   =         0.00000000
  -V(xc)+E(xc)   XCENC  =        43.23621780
  PAW double counting   =      6409.76913514    -6312.79166046
  entropy T*S    EENTRO =        -0.00034820
  eigenvalues    EBANDS =      -362.06933441
  atomic energy  EATOM  =      2112.49373795
  Solvation  Ediel_sol  =         0.00000000
  ---------------------------------------------------
  free energy    TOTEN  =       -64.08916490 eV

  energy without entropy =      -64.08881670  energy(sigma->0) =      -64.08899080


--------------------------------------------------------------------------------------------------------




--------------------------------------- Iteration      1(  10)  ---------------------------------------


    POTLOK:  cpu time    0.0210: real time    0.0212
    SETDIJ:  cpu time    0.0663: real time    0.0663
     EDDAV:  cpu time    0.7956: real time    0.7967
       DOS:  cpu time    0.0007: real time    0.0007
    CHARGE:  cpu time    0.0417: real time    0.0417
    MIXING:  cpu time    0.0007: real time    0.0007
    --------------------------------------------
      LOOP:  cpu time    0.9261: real time    0.9273

 eigenvalue-minimisations  :  1600
 total energy-change (2. order) : 0.2479599E-03  (-0.1182232E-03)
 number of electron      59.9999987 magnetization 
 augmentation part       -6.4590967 magnetization 

 Broyden mixing:
  rms(total) = 0.85177E-02    rms(broyden)= 0.85177E-02
  rms(prec ) = 0.91177E-02
  weight for this iteration     100.00

 eigenvalues of (default mixing * dielectric matrix)
  average eigenvalue GAMMA=   1.6389
  2.4245  2.4245  0.9842  1.1806  1.1806

 Free energy of the ion-electron system (eV)
  ---------------------------------------------------
  alpha Z        PSCENC =        30.28014394
  Ewald energy   TEWEN  =     14975.37070712
  -Hartree energ DENC   =    -16961.77407316
  -exchange      EXHF   =         0.00000000
  -V(xc)+E(xc)   XCENC  =        43.22455410
  PAW double counting   =      6343.53601649    -6246.51854460
  entropy T*S    EENTRO =        -0.00034212
  eigenvalues    EBANDS =      -360.70111666
  atomic energy  EATOM  =      2112.49373795
  Solvation  Ediel_sol  =         0.00000000
  ---------------------------------------------------
  free energy    TOTEN  =       -64.08891694 eV

  energy without entropy =      -64.08857482  energy(sigma->0) =      -64.08874588


--------------------------------------------------------------------------------------------------------




--------------------------------------- Iteration      1(  11)  ---------------------------------------


    POTLOK:  cpu time    0.0192: real time    0.0208
    SETDIJ:  cpu time    0.0662: real time    0.0662
     EDDAV:  cpu time    0.8280: real time    0.8292
       DOS:  cpu time    0.0007: real time    0.0007
    CHARGE:  cpu time    0.0412: real time    0.0412
    MIXING:  cpu time    0.0007: real time    0.0007
    --------------------------------------------
      LOOP:  cpu time    0.9560: real time    0.9587

 eigenvalue-minimisations  :  1696
 total energy-change (2. order) : 0.7768906E-04  (-0.2318962E-04)
 number of electron      59.9999987 magnetization 
 augmentation part       -6.4587249 magnetization 

 Broyden mixing:
  rms(total) = 0.51549E-02    rms(broyden)= 0.51549E-02
  rms(prec ) = 0.56782E-02
  weight for this iteration     100.00

 eigenvalues of (default mixing * dielectric matrix)
  average eigenvalue GAMMA=   1.6368
  2.4874  2.4874  1.5147  1.5147  0.9084  0.9084

 Free energy of the ion-electron system (eV)
  ---------------------------------------------------
  alpha Z        PSCENC =        30.28014394
  Ewald energy   TEWEN  =     14975.37070712
  -Hartree energ DENC   =    -16962.83089751
  -exchange      EXHF   =         0.00000000
  -V(xc)+E(xc)   XCENC  =        43.25043457
  PAW double counting   =      6374.45621136    -6277.43612334
  entropy T*S    EENTRO =        -0.00034327
  eigenvalues    EBANDS =      -359.67271005
  atomic energy  EATOM  =      2112.49373795
  Solvation  Ediel_sol  =         0.00000000
  ---------------------------------------------------
  free energy    TOTEN  =       -64.08883925 eV

  energy without entropy =      -64.08849598  energy(sigma->0) =      -64.08866762


--------------------------------------------------------------------------------------------------------




--------------------------------------- Iteration      1(  12)  ---------------------------------------


    POTLOK:  cpu time    0.0191: real time    0.0206
    SETDIJ:  cpu time    0.0662: real time    0.0662
     EDDAV:  cpu time    0.7945: real time    0.7955
       DOS:  cpu time    0.0007: real time    0.0007
    CHARGE:  cpu time    0.0413: real time    0.0413
    MIXING:  cpu time    0.0008: real time    0.0008
    --------------------------------------------
      LOOP:  cpu time    0.9225: real time    0.9251

 eigenvalue-minimisations  :  1568
 total energy-change (2. order) :-0.7201411E-04  (-0.7162413E-05)
 number of electron      59.9999987 magnetization 
 augmentation part       -6.4586031 magnetization 

 Broyden mixing:
  rms(total) = 0.15262E-02    rms(broyden)= 0.15262E-02
  rms(prec ) = 0.22799E-02
  weight for this iteration     100.00

 eigenvalues of (default mixing * dielectric matrix)
  average eigenvalue GAMMA=   1.7518
  3.1663  2.5383  1.7853  1.7853  1.0547  0.9664  0.9664

 Free energy of the ion-electron system (eV)
  ---------------------------------------------------
  alpha Z        PSCENC =        30.28014394
  Ewald energy   TEWEN  =     14975.37070712
  -Hartree energ DENC   =    -16963.79404060
  -exchange      EXHF   =         0.00000000
  -V(xc)+E(xc)   XCENC  =        43.25533920
  PAW double counting   =      6362.33433667    -6265.31295544
  entropy T*S    EENTRO =        -0.00034259
  eigenvalues    EBANDS =      -358.71583751
  atomic energy  EATOM  =      2112.49373795
  Solvation  Ediel_sol  =         0.00000000
  ---------------------------------------------------
  free energy    TOTEN  =       -64.08891126 eV

  energy without entropy =      -64.08856867  energy(sigma->0) =      -64.08873997


--------------------------------------------------------------------------------------------------------




--------------------------------------- Iteration      1(  13)  ---------------------------------------


    POTLOK:  cpu time    0.0193: real time    0.0206
    SETDIJ:  cpu time    0.0662: real time    0.0662
     EDDAV:  cpu time    0.7788: real time    0.7799
       DOS:  cpu time    0.0006: real time    0.0006
    CHARGE:  cpu time    0.0414: real time    0.0414
    MIXING:  cpu time    0.0008: real time    0.0008
    --------------------------------------------
      LOOP:  cpu time    0.9071: real time    0.9096

 eigenvalue-minimisations  :  1560
 total energy-change (2. order) :-0.1401222E-03  (-0.9197275E-05)
 number of electron      59.9999987 magnetization 
 augmentation part       -6.4582720 magnetization 

 Broyden mixing:
  rms(total) = 0.22801E-02    rms(broyden)= 0.22801E-02
  rms(prec ) = 0.24738E-02
  weight for this iteration     100.00

 eigenvalues of (default mixing * dielectric matrix)
  average eigenvalue GAMMA=   1.7559
  3.4055  2.4885  1.8435  1.5602  1.5602  0.9521  0.9521  1.2848

 Free energy of the ion-electron system (eV)
  ---------------------------------------------------
  alpha Z        PSCENC =        30.28014394
  Ewald energy   TEWEN  =     14975.37070712
  -Hartree energ DENC   =    -16964.97607407
  -exchange      EXHF   =         0.00000000
  -V(xc)+E(xc)   XCENC  =        43.26544366
  PAW double counting   =      6359.26052217    -6262.23953271
  entropy T*S    EENTRO =        -0.00034115
  eigenvalues    EBANDS =      -357.54365828
  atomic energy  EATOM  =      2112.49373795
  Solvation  Ediel_sol  =         0.00000000
  ---------------------------------------------------
  free energy    TOTEN  =       -64.08905139 eV

  energy without entropy =      -64.08871024  energy(sigma->0) =      -64.08888081


--------------------------------------------------------------------------------------------------------




--------------------------------------- Iteration      1(  14)  ---------------------------------------


    POTLOK:  cpu time    0.0192: real time    0.0205
    SETDIJ:  cpu time    0.0661: real time    0.0662
     EDDAV:  cpu time    0.6496: real time    0.6511
       DOS:  cpu time    0.0007: real time    0.0007
    CHARGE:  cpu time    0.0412: real time    0.0412
    MIXING:  cpu time    0.0008: real time    0.0008
    --------------------------------------------
      LOOP:  cpu time    0.7778: real time    0.7805

 eigenvalue-minimisations  :  1184
 total energy-change (2. order) :-0.1549563E-03  (-0.1352728E-05)
 number of electron      59.9999987 magnetization 
 augmentation part       -6.4582393 magnetization 

 Broyden mixing:
  rms(total) = 0.90154E-03    rms(broyden)= 0.90154E-03
  rms(prec ) = 0.11056E-02
  weight for this iteration     100.00

 eigenvalues of (default mixing * dielectric matrix)
  average eigenvalue GAMMA=   1.9394
  4.4424  2.6764  2.6764  1.8124  1.8124  1.1622  0.9766  0.9766  0.9190

 Free energy of the ion-electron system (eV)
  ---------------------------------------------------
  alpha Z        PSCENC =        30.28014394
  Ewald energy   TEWEN  =     14975.37070712
  -Hartree energ DENC   =    -16965.47997253
  -exchange      EXHF   =         0.00000000
  -V(xc)+E(xc)   XCENC  =        43.26763438
  PAW double counting   =      6360.00079819    -6262.97989551
  entropy T*S    EENTRO =        -0.00034205
  eigenvalues    EBANDS =      -357.04201783
  atomic energy  EATOM  =      2112.49373795
  Solvation  Ediel_sol  =         0.00000000
  ---------------------------------------------------
  free energy    TOTEN  =       -64.08920634 eV

  energy without entropy =      -64.08886430  energy(sigma->0) =      -64.08903532


--------------------------------------------------------------------------------------------------------




--------------------------------------- Iteration      1(  15)  ---------------------------------------


    POTLOK:  cpu time    0.0194: real time    0.0209
    SETDIJ:  cpu time    0.0662: real time    0.0662
     EDDAV:  cpu time    0.6885: real time    0.6898
       DOS:  cpu time    0.0007: real time    0.0007
    CHARGE:  cpu time    0.0418: real time    0.0418
    MIXING:  cpu time    0.0009: real time    0.0009
    --------------------------------------------
      LOOP:  cpu time    0.8174: real time    0.8201

 eigenvalue-minimisations  :  1304
 total energy-change (2. order) :-0.2159921E-03  (-0.2687323E-05)
 number of electron      59.9999987 magnetization 
 augmentation part       -6.4581258 magnetization 

 Broyden mixing:
  rms(total) = 0.12518E-02    rms(broyden)= 0.12518E-02
  rms(prec ) = 0.12768E-02
  weight for this iteration     100.00

 eigenvalues of (default mixing * dielectric matrix)
  average eigenvalue GAMMA=   1.8867
  5.2909  2.5501  2.5501  1.6631  1.6631  1.1671  1.1671  0.9308  0.9308  0.9541

 Free energy of the ion-electron system (eV)
  ---------------------------------------------------
  alpha Z        PSCENC =        30.28014394
  Ewald energy   TEWEN  =     14975.37070712
  -Hartree energ DENC   =    -16966.15670206
  -exchange      EXHF   =         0.00000000
  -V(xc)+E(xc)   XCENC  =        43.26952576
  PAW double counting   =      6362.28437708    -6265.26377803
  entropy T*S    EENTRO =        -0.00034282
  eigenvalues    EBANDS =      -356.36709127
  atomic energy  EATOM  =      2112.49373795
  Solvation  Ediel_sol  =         0.00000000
  ---------------------------------------------------
  free energy    TOTEN  =       -64.08942233 eV

  energy without entropy =      -64.08907951  energy(sigma->0) =      -64.08925092


--------------------------------------------------------------------------------------------------------




--------------------------------------- Iteration      1(  16)  ---------------------------------------


    POTLOK:  cpu time    0.0194: real time    0.0208
    SETDIJ:  cpu time    0.0661: real time    0.0661
     EDDAV:  cpu time    0.6214: real time    0.6226
       DOS:  cpu time    0.0007: real time    0.0007
    CHARGE:  cpu time    0.0413: real time    0.0413
    MIXING:  cpu time    0.0010: real time    0.0010
    --------------------------------------------
      LOOP:  cpu time    0.7499: real time    0.7525

 eigenvalue-minimisations  :  1104
 total energy-change (2. order) :-0.2868104E-04  (-0.1970900E-06)
 number of electron      59.9999987 magnetization 
 augmentation part       -6.4581169 magnetization 

 Broyden mixing:
  rms(total) = 0.37699E-03    rms(broyden)= 0.37699E-03
  rms(prec ) = 0.41822E-03
  weight for this iteration     100.00

 eigenvalues of (default mixing * dielectric matrix)
  average eigenvalue GAMMA=   2.1137
  6.7901  3.0471  2.6219  2.0440  1.6555  1.6555  1.6226  0.9262  0.9262  0.9805
  0.9805

 Free energy of the ion-electron system (eV)
  ---------------------------------------------------
  alpha Z        PSCENC =        30.28014394
  Ewald energy   TEWEN  =     14975.37070712
  -Hartree energ DENC   =    -16966.26097524
  -exchange      EXHF   =         0.00000000
  -V(xc)+E(xc)   XCENC  =        43.26948310
  PAW double counting   =      6361.43950363    -6264.41852434
  entropy T*S    EENTRO =        -0.00034240
  eigenvalues    EBANDS =      -356.26318476
  atomic energy  EATOM  =      2112.49373795
  Solvation  Ediel_sol  =         0.00000000
  ---------------------------------------------------
  free energy    TOTEN  =       -64.08945102 eV

  energy without entropy =      -64.08910862  energy(sigma->0) =      -64.08927982


--------------------------------------------------------------------------------------------------------




--------------------------------------- Iteration      1(  17)  ---------------------------------------


    POTLOK:  cpu time    0.0195: real time    0.0210
    SETDIJ:  cpu time    0.0662: real time    0.0662
     EDDAV:  cpu time    0.6320: real time    0.6330
       DOS:  cpu time    0.0007: real time    0.0007
    CHARGE:  cpu time    0.0410: real time    0.0410
    MIXING:  cpu time    0.0010: real time    0.0010
    --------------------------------------------
      LOOP:  cpu time    0.7603: real time    0.7628

 eigenvalue-minimisations  :  1136
 total energy-change (2. order) :-0.6831199E-04  (-0.2692716E-06)
 number of electron      59.9999987 magnetization 
 augmentation part       -6.4581512 magnetization 

 Broyden mixing:
  rms(total) = 0.19283E-03    rms(broyden)= 0.19283E-03
  rms(prec ) = 0.20729E-03
  weight for this iteration     100.00

 eigenvalues of (default mixing * dielectric matrix)
  average eigenvalue GAMMA=   2.0538
  7.3417  3.1161  2.4360  2.0410  1.6062  1.6062  1.6478  0.9165  0.9608  0.9608
  1.0064  1.0064

 Free energy of the ion-electron system (eV)
  ---------------------------------------------------
  alpha Z        PSCENC =        30.28014394
  Ewald energy   TEWEN  =     14975.37070712
  -Hartree energ DENC   =    -16966.39297766
  -exchange      EXHF   =         0.00000000
  -V(xc)+E(xc)   XCENC  =        43.26912942
  PAW double counting   =      6362.40280279    -6265.38152782
  entropy T*S    EENTRO =        -0.00034211
  eigenvalues    EBANDS =      -356.13119295
  atomic energy  EATOM  =      2112.49373795
  Solvation  Ediel_sol  =         0.00000000
  ---------------------------------------------------
  free energy    TOTEN  =       -64.08951933 eV

  energy without entropy =      -64.08917722  energy(sigma->0) =      -64.08934827


--------------------------------------------------------------------------------------------------------




--------------------------------------- Iteration      1(  18)  ---------------------------------------


    POTLOK:  cpu time    0.0195: real time    0.0214
    SETDIJ:  cpu time    0.0661: real time    0.0661
     EDDAV:  cpu time    0.5820: real time    0.5830
       DOS:  cpu time    0.0007: real time    0.0007
    --------------------------------------------
      LOOP:  cpu time    0.7526: real time    0.7555

 eigenvalue-minimisations  :   992
 total energy-change (2. order) :-0.9503998E-05  (-0.3611920E-07)
 number of electron      59.9999987 magnetization 
 augmentation part       -6.4581512 magnetization 

 Free energy of the ion-electron system (eV)
  ---------------------------------------------------
  alpha Z        PSCENC =        30.28014394
  Ewald energy   TEWEN  =     14975.37070712
  -Hartree energ DENC   =    -16966.40868743
  -exchange      EXHF   =         0.00000000
  -V(xc)+E(xc)   XCENC  =        43.26904100
  PAW double counting   =      6362.05373732    -6265.03250885
  entropy T*S    EENTRO =        -0.00034223
  eigenvalues    EBANDS =      -356.11535765
  atomic energy  EATOM  =      2112.49373795
  Solvation  Ediel_sol  =         0.00000000
  ---------------------------------------------------
  free energy    TOTEN  =       -64.08952883 eV

  energy without entropy =      -64.08918660  energy(sigma->0) =      -64.08935772


--------------------------------------------------------------------------------------------------------




 the core state eigenenergies are
   1-  1s  -2078.3795  2s   -168.4105  2p   -118.8961
   2-  1s  -2078.3795  2s   -168.4105  2p   -118.8961
   3-  1s  -2078.5036  2s   -168.5321  2p   -119.0180
   4-  1s  -2078.5036  2s   -168.5321  2p   -119.0180
   5-  1s  -2078.5758  2s   -168.6049  2p   -119.0908
   6-  1s  -2078.5758  2s   -168.6049  2p   -119.0908
   7-  1s  -2078.5758  2s   -168.6049  2p   -119.0908
   8-  1s  -2078.5758  2s   -168.6049  2p   -119.0908
   9-  1s  -2078.5036  2s   -168.5321  2p   -119.0180
  10-  1s  -2078.5036  2s   -168.5321  2p   -119.0180
  11-  1s  -2078.3795  2s   -168.4105  2p   -118.8961
  12-  1s  -2078.3795  2s   -168.4105  2p   -118.8961
 
 E-fermi :   1.0143     XC(G=0):  -5.1156     alpha+bet : -5.5572


 k-point     1 :       0.0000    0.0000    0.0000
  band No.  band energies     occupation 
      1     -14.9546      2.00000
      2     -14.7681      2.00000
      3     -14.7121      2.00000
      4     -12.4805      2.00000
      5     -12.1663      2.00000
      6     -12.0102      2.00000
      7      -8.7245      2.00000
      8      -8.5538      2.00000
      9      -8.5116      2.00000
     10      -6.0626      2.00000
     11      -5.6255      2.00000
     12      -5.1797      2.00000
     13      -4.7921      2.00000
     14      -4.5859      2.00000
     15      -4.2702      2.00000
     16      -4.1780      2.00000
     17      -4.0406      2.00000
     18      -3.8486      2.00000
     19      -3.4935      2.00000
     20      -3.3272      2.00000
     21      -3.2914      2.00000
     22      -2.0150      2.00000
     23      -1.8322      2.00000
     24      -1.6808      2.00000
     25      -1.6227      2.00000
     26      -1.5649      2.00000
     27      -1.1229      2.00000
     28      -0.5647      2.00000
     29       0.3323      2.00000
     30       0.9002      2.00000
     31       1.0147      0.95006
     32       1.4352      0.00000
     33       1.4935      0.00000
     34       1.6326      0.00000
     35       1.6650      0.00000
     36       1.9266      0.00000
     37       2.6461      0.00000
     38       2.8591      0.00000
     39       2.8964      0.00000
     40       3.6065      0.00000

 k-point     2 :       0.1429    0.0000    0.0000
  band No.  band energies     occupation 
      1     -14.7172      2.00000
      2     -14.5311      2.00000
      3     -14.4755      2.00000
      4     -12.2344      2.00000
      5     -11.9200      2.00000
      6     -11.7637      2.00000
      7      -8.9452      2.00000
      8      -8.7744      2.00000
      9      -8.7325      2.00000
     10      -5.8619      2.00000
     11      -5.4291      2.00000
     12      -5.1823      2.00000
     13      -5.0011      2.00000
     14      -4.7149      2.00000
     15      -4.4033      2.00000
     16      -4.3839      2.00000
     17      -4.3739      2.00000
     18      -4.2325      2.00000
     19      -4.1912      2.00000
     20      -3.9810      2.00000
     21      -3.8379      2.00000
     22      -2.6815      2.00000
     23      -2.4286      2.00000
     24      -2.2861      2.00000
     25      -1.9266      2.00000
     26      -1.5588      2.00000
     27      -0.9838      2.00000
     28      -0.6995      2.00000
     29       0.2087      2.00000
     30       1.0093      1.52497
     31       1.1142      0.00000
     32       1.6637      0.00000
     33       1.8130      0.00000
     34       2.5520      0.00000
     35       2.6691      0.00000
     36       2.7086      0.00000
     37       3.1598      0.00000
     38       3.3534      0.00000
     39       3.4566      0.00000
     40       4.0214      0.00000

 k-point     3 :       0.2857    0.0000    0.0000
  band No.  band energies     occupation 
      1     -14.0144      2.00000
      2     -13.8294      2.00000
      3     -13.7749      2.00000
      4     -11.5012      2.00000
      5     -11.1859      2.00000
      6     -11.0285      2.00000
      7      -9.8953      2.00000
      8      -9.7210      2.00000
      9      -9.6766      2.00000
     10      -6.7651      2.00000
     11      -6.4055      2.00000
     12      -6.1991      2.00000
     13      -5.2998      2.00000
     14      -5.0711      2.00000
     15      -4.9002      2.00000
     16      -4.8909      2.00000
     17      -4.8631      2.00000
     18      -4.5406      2.00000
     19      -3.8280      2.00000
     20      -3.4474      2.00000
     21      -3.2721      2.00000
     22      -2.9338      2.00000
     23      -2.6134      2.00000
     24      -2.3131      2.00000
     25      -1.9394      2.00000
     26      -1.4474      2.00000
     27      -1.2468      2.00000
     28      -0.8378      2.00000
     29      -0.3949      2.00000
     30       0.3329      2.00000
     31       1.1123      0.00000
     32       1.2308      0.00000
     33       1.4431      0.00000
     34       1.8000      0.00000
     35       2.4268      0.00000
     36       2.6018      0.00000
     37       2.6501      0.00000
     38       3.0166      0.00000
     39       3.0898      0.00000
     40       3.2265      0.00000

 k-point     4 :       0.4286    0.0000    0.0000
  band No.  band energies     occupation 
      1     -12.8813      2.00000
      2     -12.6983      2.00000
      3     -12.6460      2.00000
      4     -11.4138      2.00000
      5     -11.2343      2.00000
      6     -11.1854      2.00000
      7     -10.2990      2.00000
      8      -9.9808      2.00000
      9      -9.8201      2.00000
     10      -8.6732      2.00000
     11      -8.3459      2.00000
     12      -8.1753      2.00000
     13      -4.7531      2.00000
     14      -4.6294      2.00000
     15      -4.5840      2.00000
     16      -4.5535      2.00000
     17      -4.3353      2.00000
     18      -4.1994      2.00000
     19      -3.1842      2.00000
     20      -2.9733      2.00000
     21      -2.8020      2.00000
     22      -2.6798      2.00000
     23      -2.5484      2.00000
     24      -2.2640      2.00000
     25      -2.1246      2.00000
     26      -1.9034      2.00000
     27      -1.6699      2.00000
     28      -1.2367      2.00000
     29      -1.1360      2.00000
     30      -0.6619      2.00000
     31       1.2926      0.00000
     32       1.3499      0.00000
     33       1.3537      0.00000
     34       1.6769      0.00000
     35       1.7059      0.00000
     36       1.7300      0.00000
     37       2.0216      0.00000
     38       2.0287      0.00000
     39       2.2831      0.00000
     40       2.6562      0.00000

 k-point     5 :       0.0000    0.0000    0.1667
  band No.  band energies     occupation 
      1     -14.7975      2.00000
      2     -14.6136      2.00000
      3     -14.5604      2.00000
      4     -12.5622      2.00000
      5     -12.3028      2.00000
      6     -12.2088      2.00000
      7      -8.9297      2.00000
      8      -8.7879      2.00000
      9      -8.7591      2.00000
     10      -6.3841      2.00000
     11      -6.1474      2.00000
     12      -6.1000      2.00000
     13      -4.6189      2.00000
     14      -4.4784      2.00000
     15      -3.9226      2.00000
     16      -3.7338      2.00000
     17      -3.3688      2.00000
     18      -3.3554      2.00000
     19      -3.3490      2.00000
     20      -3.2055      2.00000
     21      -3.1728      2.00000
     22      -1.8852      2.00000
     23      -1.6944      2.00000
     24      -1.6557      2.00000
     25      -1.3815      2.00000
     26      -1.0042      2.00000
     27      -0.9020      2.00000
     28      -0.6272      2.00000
     29      -0.4796      2.00000
     30       0.1233      2.00000
     31       1.6432      0.00000
     32       1.7297      0.00000
     33       1.8314      0.00000
     34       1.9316      0.00000
     35       2.2100      0.00000
     36       2.3797      0.00000
     37       2.4291      0.00000
     38       2.5805      0.00000
     39       2.6052      0.00000
     40       3.3672      0.00000

 k-point     6 :       0.1429    0.0000    0.1667
  band No.  band energies     occupation 
      1     -14.5616      2.00000
      2     -14.3781      2.00000
      3     -14.3253      2.00000
      4     -12.3226      2.00000
      5     -12.0654      2.00000
      6     -11.9743      2.00000
      7      -9.0228      2.00000
      8      -8.8854      2.00000
      9      -8.8642      2.00000
     10      -6.3479      2.00000
     11      -6.0385      2.00000
     12      -6.0285      2.00000
     13      -4.8906      2.00000
     14      -4.8329      2.00000
     15      -4.6161      2.00000
     16      -4.4591      2.00000
     17      -4.2222      2.00000
     18      -4.0077      2.00000
     19      -3.2415      2.00000
     20      -3.1126      2.00000
     21      -2.9458      2.00000
     22      -2.7776      2.00000
     23      -2.7132      2.00000
     24      -2.7084      2.00000
     25      -1.3728      2.00000
     26      -1.1053      2.00000
     27      -0.9346      2.00000
     28      -0.6271      2.00000
     29      -0.4690      2.00000
     30       0.2019      2.00000
     31       1.7812      0.00000
     32       2.1293      0.00000
     33       2.3347      0.00000
     34       2.5462      0.00000
     35       2.6431      0.00000
     36       2.7380      0.00000
     37       3.2828      0.00000
     38       3.4380      0.00000
     39       3.4433      0.00000
     40       4.0505      0.00000

 k-point     7 :       0.2857    0.0000    0.1667
  band No.  band energies     occupation 
      1     -13.8651      2.00000
      2     -13.6826      2.00000
      3     -13.6308      2.00000
      4     -11.6277      2.00000
      5     -11.3869      2.00000
      6     -11.3183      2.00000
      7      -9.6779      2.00000
      8      -9.5465      2.00000
      9      -9.5323      2.00000
     10      -7.0259      2.00000
     11      -6.6886      2.00000
     12      -6.5164      2.00000
     13      -5.6465      2.00000
     14      -5.5422      2.00000
     15      -5.4243      2.00000
     16      -4.9885      2.00000
     17      -4.6692      2.00000
     18      -4.6485      2.00000
     19      -3.2472      2.00000
     20      -3.1962      2.00000
     21      -2.9964      2.00000
     22      -2.9003      2.00000
     23      -2.6841      2.00000
     24      -2.5720      2.00000
     25      -1.8491      2.00000
     26      -1.5148      2.00000
     27      -1.4222      2.00000
     28      -1.0083      2.00000
     29      -0.6145      2.00000
     30       0.0366      2.00000
     31       1.7620      0.00000
     32       1.8589      0.00000
     33       2.1760      0.00000
     34       2.2257      0.00000
     35       2.2691      0.00000
     36       2.5236      0.00000
     37       2.6609      0.00000
     38       2.6763      0.00000
     39       2.7312      0.00000
     40       3.5873      0.00000

 k-point     8 :       0.4286    0.0000    0.1667
  band No.  band energies     occupation 
      1     -12.7532      2.00000
      2     -12.5724      2.00000
      3     -12.5223      2.00000
      4     -11.4132      2.00000
      5     -11.2400      2.00000
      6     -11.2024      2.00000
      7     -10.2040      2.00000
      8      -9.9220      2.00000
      9      -9.7961      2.00000
     10      -8.7302      2.00000
     11      -8.4326      2.00000
     12      -8.2965      2.00000
     13      -5.2347      2.00000
     14      -5.1163      2.00000
     15      -5.0272      2.00000
     16      -4.5566      2.00000
     17      -4.3876      2.00000
     18      -4.3633      2.00000
     19      -3.6159      2.00000
     20      -3.4660      2.00000
     21      -3.2042      2.00000
     22      -3.0033      2.00000
     23      -2.7039      2.00000
     24      -2.6956      2.00000
     25      -2.1902      2.00000
     26      -1.8322      2.00000
     27      -1.4200      2.00000
     28      -1.1027      2.00000
     29      -0.7715      2.00000
     30      -0.3448      2.00000
     31       1.2215      0.00000
     32       1.4403      0.00000
     33       1.7152      0.00000
     34       1.8719      0.00000
     35       2.0639      0.00000
     36       2.1771      0.00000
     37       2.5979      0.00000
     38       2.7737      0.00000
     39       2.9453      0.00000
     40       3.1577      0.00000

 k-point     9 :       0.0000    0.0000    0.3333
  band No.  band energies     occupation 
      1     -14.3431      2.00000
      2     -14.1690      2.00000
      3     -14.1265      2.00000
      4     -12.9426      2.00000
      5     -12.7819      2.00000
      6     -12.7805      2.00000
      7      -9.1360      2.00000
      8      -8.8475      2.00000
      9      -8.6662      2.00000
     10      -7.6917      2.00000
     11      -7.2838      2.00000
     12      -7.0236      2.00000
     13      -4.5272      2.00000
     14      -3.7985      2.00000
     15      -3.0201      2.00000
     16      -3.0090      2.00000
     17      -2.8673      2.00000
     18      -2.8450      2.00000
     19      -2.7119      2.00000
     20      -2.3664      2.00000
     21      -2.1484      2.00000
     22      -2.1050      2.00000
     23      -1.9718      2.00000
     24      -1.9496      2.00000
     25      -1.9452      2.00000
     26      -1.6010      2.00000
     27      -0.8770      2.00000
     28       0.0163      2.00000
     29       0.1171      2.00000
     30       0.1961      2.00000
     31       1.7336      0.00000
     32       1.8851      0.00000
     33       1.9676      0.00000
     34       2.0597      0.00000
     35       2.2187      0.00000
     36       2.2452      0.00000
     37       2.7849      0.00000
     38       3.1033      0.00000
     39       3.2737      0.00000
     40       3.3113      0.00000

 k-point    10 :       0.1429    0.0000    0.3333
  band No.  band energies     occupation 
      1     -14.1119      2.00000
      2     -13.9379      2.00000
      3     -13.8955      2.00000
      4     -12.7168      2.00000
      5     -12.5575      2.00000
      6     -12.5572      2.00000
      7      -9.0801      2.00000
      8      -8.8040      2.00000
      9      -8.6417      2.00000
     10      -7.5941      2.00000
     11      -7.1951      2.00000
     12      -6.9435      2.00000
     13      -4.6303      2.00000
     14      -4.6053      2.00000
     15      -4.4323      2.00000
     16      -4.2447      2.00000
     17      -3.6802      2.00000
     18      -3.5935      2.00000
     19      -3.3408      2.00000
     20      -3.2632      2.00000
     21      -2.8267      2.00000
     22      -2.5748      2.00000
     23      -1.9046      2.00000
     24      -1.8899      2.00000
     25      -1.3925      2.00000
     26      -1.2534      2.00000
     27      -0.7513      2.00000
     28      -0.5090      2.00000
     29      -0.4266      2.00000
     30      -0.3792      2.00000
     31       2.4933      0.00000
     32       2.7689      0.00000
     33       2.8056      0.00000
     34       3.0118      0.00000
     35       3.0309      0.00000
     36       3.2892      0.00000
     37       3.3186      0.00000
     38       3.3993      0.00000
     39       3.6145      0.00000
     40       3.6276      0.00000

 k-point    11 :       0.2857    0.0000    0.3333
  band No.  band energies     occupation 
      1     -13.4352      2.00000
      2     -13.2615      2.00000
      3     -13.2194      2.00000
      4     -12.0828      2.00000
      5     -11.9332      2.00000
      6     -11.9293      2.00000
      7      -9.2676      2.00000
      8      -9.0518      2.00000
      9      -8.9725      2.00000
     10      -7.7412      2.00000
     11      -7.4224      2.00000
     12      -7.2670      2.00000
     13      -5.9277      2.00000
     14      -5.7798      2.00000
     15      -5.6861      2.00000
     16      -5.1053      2.00000
     17      -4.9089      2.00000
     18      -4.9047      2.00000
     19      -3.7084      2.00000
     20      -3.3100      2.00000
     21      -3.1811      2.00000
     22      -2.6261      2.00000
     23      -2.3899      2.00000
     24      -2.3646      2.00000
     25      -1.7993      2.00000
     26      -1.5817      2.00000
     27      -1.3408      2.00000
     28      -1.1298      2.00000
     29      -0.8687      2.00000
     30      -0.3034      2.00000
     31       1.9940      0.00000
     32       2.2911      0.00000
     33       2.4361      0.00000
     34       2.8177      0.00000
     35       2.8592      0.00000
     36       2.9726      0.00000
     37       3.5563      0.00000
     38       3.7554      0.00000
     39       3.8234      0.00000
     40       4.2277      0.00000

 k-point    12 :       0.4286    0.0000    0.3333
  band No.  band energies     occupation 
      1     -12.3990      2.00000
      2     -12.2250      2.00000
      3     -12.1821      2.00000
      4     -11.5409      2.00000
      5     -11.3770      2.00000
      6     -11.3528      2.00000
      7      -9.9044      2.00000
      8      -9.6904      2.00000
      9      -9.6332      2.00000
     10      -8.9755      2.00000
     11      -8.7440      2.00000
     12      -8.6782      2.00000
     13      -5.7101      2.00000
     14      -5.5047      2.00000
     15      -5.3439      2.00000
     16      -4.8402      2.00000
     17      -4.5958      2.00000
     18      -4.5572      2.00000
     19      -4.4903      2.00000
     20      -4.2453      2.00000
     21      -3.9943      2.00000
     22      -3.6227      2.00000
     23      -3.3421      2.00000
     24      -3.2428      2.00000
     25      -2.2951      2.00000
     26      -1.7374      2.00000
     27      -1.4492      2.00000
     28      -0.9366      2.00000
     29      -0.6345      2.00000
     30      -0.1072      2.00000
     31       2.1091      0.00000
     32       2.2271      0.00000
     33       2.3247      0.00000
     34       2.8581      0.00000
     35       2.9556      0.00000
     36       3.1918      0.00000
     37       3.2658      0.00000
     38       3.3219      0.00000
     39       3.4865      0.00000
     40       3.9868      0.00000

 k-point    13 :       0.0000    0.0000    0.5000
  band No.  band energies     occupation 
      1     -13.6584      2.00000
      2     -13.6584      2.00000
      3     -13.5515      2.00000
      4     -13.5515      2.00000
      5     -13.4301      2.00000
      6     -13.4301      2.00000
      7      -8.6933      2.00000
      8      -8.6933      2.00000
      9      -8.2983      2.00000
     10      -8.2983      2.00000
     11      -8.0237      2.00000
     12      -8.0237      2.00000
     13      -3.7770      2.00000
     14      -3.7770      2.00000
     15      -2.9088      2.00000
     16      -2.9088      2.00000
     17      -2.5373      2.00000
     18      -2.5373      2.00000
     19      -2.4572      2.00000
     20      -2.4572      2.00000
     21      -2.3233      2.00000
     22      -2.3233      2.00000
     23      -2.0702      2.00000
     24      -2.0702      2.00000
     25      -0.7127      2.00000
     26      -0.7127      2.00000
     27      -0.5818      2.00000
     28      -0.5818      2.00000
     29      -0.5315      2.00000
     30      -0.5315      2.00000
     31       1.9143      0.00000
     32       1.9143      0.00000
     33       2.2350      0.00000
     34       2.2350      0.00000
     35       2.4037      0.00000
     36       2.4037      0.00000
     37       3.3259      0.00000
     38       3.3260      0.00000
     39       3.5480      0.00000
     40       3.5571      0.00000

 k-point    14 :       0.1429    0.0000    0.5000
  band No.  band energies     occupation 
      1     -13.4336      2.00000
      2     -13.4336      2.00000
      3     -13.3254      2.00000
      4     -13.3254      2.00000
      5     -13.2056      2.00000
      6     -13.2056      2.00000
      7      -8.5845      2.00000
      8      -8.5845      2.00000
      9      -8.2026      2.00000
     10      -8.2026      2.00000
     11      -7.9461      2.00000
     12      -7.9461      2.00000
     13      -4.1002      2.00000
     14      -4.1002      2.00000
     15      -4.0116      2.00000
     16      -4.0116      2.00000
     17      -3.9123      2.00000
     18      -3.9123      2.00000
     19      -3.5568      2.00000
     20      -3.5568      2.00000
     21      -2.7572      2.00000
     22      -2.7572      2.00000
     23      -2.0487      2.00000
     24      -2.0487      2.00000
     25      -0.6545      2.00000
     26      -0.6545      2.00000
     27      -0.5034      2.00000
     28      -0.5034      2.00000
     29      -0.4790      2.00000
     30      -0.4790      2.00000
     31       2.6878      0.00000
     32       2.6878      0.00000
     33       2.9187      0.00000
     34       2.9187      0.00000
     35       2.9794      0.00000
     36       2.9794      0.00000
     37       3.2606      0.00000
     38       3.2606      0.00000
     39       3.8914      0.00000
     40       3.8914      0.00000

 k-point    15 :       0.2857    0.0000    0.5000
  band No.  band energies     occupation 
      1     -12.7890      2.00000
      2     -12.7890      2.00000
      3     -12.6746      2.00000
      4     -12.6746      2.00000
      5     -12.5619      2.00000
      6     -12.5619      2.00000
      7      -8.5928      2.00000
      8      -8.5928      2.00000
      9      -8.3024      2.00000
     10      -8.3024      2.00000
     11      -8.1581      2.00000
     12      -8.1581      2.00000
     13      -5.6618      2.00000
     14      -5.6618      2.00000
     15      -5.4880      2.00000
     16      -5.4880      2.00000
     17      -5.3714      2.00000
     18      -5.3714      2.00000
     19      -3.3050      2.00000
     20      -3.3050      2.00000
     21      -2.9126      2.00000
     22      -2.9126      2.00000
     23      -2.7126      2.00000
     24      -2.7126      2.00000
     25      -1.5944      2.00000
     26      -1.5944      2.00000
     27      -1.3218      2.00000
     28      -1.3218      2.00000
     29      -0.7242      2.00000
     30      -0.7242      2.00000
     31       2.9500      0.00000
     32       2.9500      0.00000
     33       3.3205      0.00000
     34       3.3205      0.00000
     35       3.4774      0.00000
     36       3.4774      0.00000
     37       3.7771      0.00000
     38       3.7771      0.00000
     39       3.9729      0.00000
     40       3.9835      0.00000

 k-point    16 :       0.4286    0.0000    0.5000
  band No.  band energies     occupation 
      1     -11.9257      2.00000
      2     -11.9257      2.00000
      3     -11.7820      2.00000
      4     -11.7820      2.00000
      5     -11.7050      2.00000
      6     -11.7050      2.00000
      7      -9.4371      2.00000
      8      -9.4371      2.00000
      9      -9.2563      2.00000
     10      -9.2563      2.00000
     11      -9.1932      2.00000
     12      -9.1932      2.00000
     13      -5.5520      2.00000
     14      -5.5520      2.00000
     15      -5.2678      2.00000
     16      -5.2678      2.00000
     17      -5.0576      2.00000
     18      -5.0576      2.00000
     19      -4.2990      2.00000
     20      -4.2990      2.00000
     21      -4.0014      2.00000
     22      -4.0014      2.00000
     23      -3.8588      2.00000
     24      -3.8588      2.00000
     25      -2.0458      2.00000
     26      -2.0458      2.00000
     27      -1.1921      2.00000
     28      -1.1921      2.00000
     29      -0.3328      2.00000
     30      -0.3328      2.00000
     31       2.3253      0.00000
     32       2.3253      0.00000
     33       2.8604      0.00000
     34       2.8604      0.00000
     35       3.0549      0.00000
     36       3.0549      0.00000
     37       4.4451      0.00000
     38       4.4470      0.00000
     39       4.5299      0.00000
     40       4.5535      0.00000


--------------------------------------------------------------------------------------------------------


 soft charge-density along one line, spin component           1
         0         1         2         3         4         5         6         7         8         9
 total charge-density along one line
 
 pseudopotential strength for first ion, spin component:           1
 29.683  37.028   0.035  -0.033   0.000   0.054  -0.051   0.000
 37.028  46.195   0.043  -0.041   0.000   0.067  -0.063   0.000
  0.035   0.043   6.553   0.006  -0.000  10.134   0.009  -0.000
 -0.033  -0.041   0.006   6.557   0.000   0.009  10.140   0.000
  0.000   0.000  -0.000   0.000   6.561  -0.000   0.000  10.147
  0.054   0.067  10.134   0.009  -0.000  15.691   0.014  -0.000
 -0.051  -0.063   0.009  10.140   0.000   0.014  15.700   0.000
  0.000   0.000  -0.000   0.000  10.147  -0.000   0.000  15.710
 total augmentation occupancy for first ion, spin component:           1
  8.306  -4.741   1.849  -1.942  -0.000  -0.602   0.647   0.000
 -4.741   3.448  -1.584   1.649   0.000   0.446  -0.475   0.000
  1.849  -1.584   3.132   0.201   0.000  -0.826  -0.162   0.000
 -1.942   1.649   0.201   3.278   0.000  -0.160  -0.927   0.000
  0.000  -0.000   0.000   0.000   3.403   0.000   0.000  -1.029
 -0.602   0.446  -0.826  -0.160   0.000   0.262   0.070   0.000
  0.647  -0.475  -0.162  -0.927   0.000   0.070   0.300  -0.000
  0.000   0.000   0.000   0.000  -1.029   0.000   0.000   0.341


------------------------ aborting loop because EDIFF is reached ----------------------------------------


 


 total charge     
 
# of ion       s       p       d       tot
------------------------------------------
    1        1.083   1.375   0.000   2.458
    2        1.083   1.375   0.000   2.458
    3        1.087   1.370   0.000   2.457
    4        1.087   1.370   0.000   2.457
    5        1.088   1.369   0.000   2.457
    6        1.088   1.369   0.000   2.457
    7        1.088   1.369   0.000   2.457
    8        1.088   1.369   0.000   2.457
    9        1.087   1.370   0.000   2.457
   10        1.087   1.370   0.000   2.457
   11        1.083   1.375   0.000   2.458
   12        1.083   1.375   0.000   2.458
--------------------------------------------------
tot         13.029  16.455   0.000  29.484
 
    CHARGE:  cpu time    0.0412: real time    0.0412
    FORLOC:  cpu time    0.0015: real time    0.0015
    FORNL :  cpu time    0.1649: real time    0.1649
    STRESS:  cpu time    0.2676: real time    0.2676
    FORCOR:  cpu time    0.0204: real time    0.0204
    FORHAR:  cpu time    0.0057: real time    0.0057
    MIXING:  cpu time    0.0010: real time    0.0010
    OFIELD:  cpu time    0.0000: real time    0.0000

  DFT-D2 method for vdW energy calculation
  -------------------------------------------------------------------

  Parameters of vdW forcefield:
         C6(Jnm^6/mol)     R0(A)
   -----------------------------
   P        7.840          1.705

  IVDW =  10
  VDW_RADIUS =    50.000 A
  VDW_S6 =     0.750
  VDW_SR =     1.000
  VDW_D =    20.000
  LVDW_EWALD = F

  Number of pair interactions contributing to vdW energy:   88298
  Edisp (eV):   -2.09049
    FORVDW:  cpu time    0.0521: real time    0.0531

  FORCE on cell =-STRESS in cart. coord.  units (eV):
  Direction    XX          YY          ZZ          XY          YZ          ZX
  --------------------------------------------------------------------------------------
  Alpha Z    30.28014    30.28014    30.28014
  Ewald   16581.80831-18028.74426 16422.30473    -0.00000     0.00000     0.00000
  Hartree 16891.39763-16761.31375 16836.35364    -0.00000    -0.00000    -0.00000
  E(xc)    -201.71647  -202.62658  -201.83997     0.00000    -0.00000     0.00000
  Local  -34426.38347 33797.59442-34232.58302    -0.00000    -0.00000    -0.00000
  n-local   681.51968   676.76010   676.20498     0.00000     0.00000     1.83897
  augment  -126.65294  -130.62317  -129.14465     0.00000    -0.00000     0.00000
  Kinetic   568.51968   624.84466   599.34026    -0.00000     0.00001     8.16585
  Fock        0.00000     0.00000     0.00000     0.00000     0.00000     0.00000
  vdW        -0.40633    -1.21184    -1.04267    -0.00000    -0.00000     0.00000
  -------------------------------------------------------------------------------------
  Total      -1.63378     4.95973    -0.12656     0.00000    -0.00000     0.00000
  in kB      -5.48999    16.66619    -0.42529     0.00000    -0.00000     0.00000
  external pressure =        3.58 kB  Pullay stress =        0.00 kB


 VOLUME and BASIS-vectors are now :
 -----------------------------------------------------------------------------
  energy-cutoff  :      450.00
  volume of cell :      476.80
      direct lattice vectors                 reciprocal lattice vectors
     3.342886000  0.000000000  0.000000000     0.299142717  0.000000000  0.000000000
     0.000000000 32.602409000  0.000000000     0.000000000  0.030672580  0.000000000
     0.000000000  0.000000000  4.374831000     0.000000000  0.000000000  0.228580258

  length of vectors
     3.342886000 32.602409000  4.374831000     0.299142717  0.030672580  0.228580258


 FORCES acting on ions
    electron-ion (+dipol)            ewald-force                    non-local-force                 convergence-correction
 -----------------------------------------------------------------------------------------------
   0.763E-15 0.823E+03 -.291E+02   0.142E-14 -.828E+03 0.342E+02   0.555E-16 0.549E+01 -.523E+01   0.228E-14 0.154E-02 -.607E-04
   -.126E-13 0.823E+03 0.291E+02   -.514E-14 -.828E+03 -.342E+02   -.278E-16 0.549E+01 0.523E+01   -.142E-14 0.154E-02 0.607E-04
   -.834E-15 0.460E+03 0.251E+02   0.287E-14 -.455E+03 -.308E+02   0.000E+00 -.513E+01 0.554E+01   0.299E-14 0.165E-03 0.145E-03
   -.165E-13 0.460E+03 -.251E+02   -.708E-14 -.455E+03 0.308E+02   0.000E+00 -.513E+01 -.554E+01   -.373E-15 0.165E-03 -.145E-03
   0.101E-15 0.183E+03 -.254E+02   0.791E-15 -.187E+03 0.310E+02   0.000E+00 0.485E+01 -.555E+01   0.167E-14 -.503E-04 0.626E-04
   -.142E-13 0.183E+03 0.254E+02   -.517E-14 -.187E+03 -.310E+02   0.000E+00 0.485E+01 0.555E+01   -.364E-15 -.503E-04 -.626E-04
   0.605E-15 -.183E+03 0.254E+02   0.193E-14 0.187E+03 -.310E+02   0.000E+00 -.485E+01 0.555E+01   0.226E-14 0.503E-04 -.626E-04
   -.145E-13 -.183E+03 -.254E+02   -.620E-14 0.187E+03 0.310E+02   0.000E+00 -.485E+01 -.555E+01   -.189E-15 0.503E-04 0.626E-04
   0.473E-15 -.460E+03 -.251E+02   -.148E-15 0.455E+03 0.308E+02   0.000E+00 0.513E+01 -.554E+01   0.221E-14 -.165E-03 -.145E-03
   -.181E-13 -.460E+03 0.251E+02   -.428E-14 0.455E+03 -.308E+02   0.000E+00 0.513E+01 0.554E+01   -.137E-14 -.165E-03 0.145E-03
   0.567E-15 -.823E+03 0.291E+02   0.131E-14 0.828E+03 -.342E+02   -.555E-16 -.549E+01 0.523E+01   0.269E-14 -.154E-02 0.607E-04
   -.131E-13 -.823E+03 -.291E+02   -.623E-14 0.828E+03 0.342E+02   0.278E-16 -.549E+01 -.523E+01   -.439E-15 -.154E-02 -.607E-04
 -----------------------------------------------------------------------------------------------
   -.874E-13 0.403E-11 0.429E-10   -.259E-13 0.682E-12 0.000E+00   0.000E+00 0.888E-15 -.178E-14   0.995E-14 -.359E-11 -.275E-13
 
 
 POSITION                                       TOTAL-FORCE (eV/Angst)
 -----------------------------------------------------------------------------------
      0.00000     10.00001      4.02014         0.000000     -0.123238     -0.148105
      1.67144     10.00001      2.54211         0.000000     -0.123238      0.148105
      0.00000     12.14332      0.35469         0.000000     -0.091924     -0.096455
      1.67144     12.14332      1.83272         0.000000     -0.091924      0.096455
      0.00000     15.22953      4.02014         0.000000     -0.086202      0.011908
      1.67144     15.22953      2.54211         0.000000     -0.086202     -0.011908
      0.00000     17.37288      0.35469         0.000000      0.086202     -0.011908
      1.67144     17.37288      1.83272         0.000000      0.086202      0.011908
      0.00000     20.45909      4.02014         0.000000      0.091924      0.096455
      1.67144     20.45909      2.54211         0.000000      0.091924     -0.096455
      0.00000     22.60240      0.35469         0.000000      0.123238      0.148105
      1.67144     22.60240      1.83272         0.000000      0.123238     -0.148105
 -----------------------------------------------------------------------------------
    total drift:                               -0.000000      0.000000      0.000000


--------------------------------------------------------------------------------------------------------



  FREE ENERGIE OF THE ION-ELECTRON SYSTEM (eV)
  ---------------------------------------------------
  free  energy   TOTEN  =       -66.18001801 eV

  energy  without entropy=      -66.17967577  energy(sigma->0) =      -66.17984689
 


--------------------------------------------------------------------------------------------------------


    POTLOK:  cpu time    0.1160: real time    0.1160


--------------------------------------------------------------------------------------------------------


 writing wavefunctions
     LOOP+:  cpu time   17.7984: real time   17.8855
    4ORBIT:  cpu time    0.0000: real time    0.0000
 


 total charge     
 
# of ion       s       p       d       tot
------------------------------------------
    1        1.083   1.375   0.000   2.458
    2        1.083   1.375   0.000   2.458
    3        1.087   1.370   0.000   2.457
    4        1.087   1.370   0.000   2.457
    5        1.088   1.369   0.000   2.457
    6        1.088   1.369   0.000   2.457
    7        1.088   1.369   0.000   2.457
    8        1.088   1.369   0.000   2.457
    9        1.087   1.370   0.000   2.457
   10        1.087   1.370   0.000   2.457
   11        1.083   1.375   0.000   2.458
   12        1.083   1.375   0.000   2.458
--------------------------------------------------
tot         13.029  16.455   0.000  29.484
 

 total amount of memory used by VASP MPI-rank0    38699. kBytes
=======================================================================

   base      :      30000. kBytes
   nonl-proj :       1595. kBytes
   fftplans  :       1467. kBytes
   grid      :       2232. kBytes
   one-center:          6. kBytes
   wavefun   :       3399. kBytes
 
  
  
 General timing and accounting informations for this job:
 ========================================================
  
                  Total CPU time used (sec):       24.309
                            User time (sec):       21.302
                          System time (sec):        3.007
                         Elapsed time (sec):       24.729
  
                   Maximum memory used (kb):      109084.
                   Average memory used (kb):           0.
  
                          Minor page faults:        40919
                          Major page faults:            0
                 Voluntary context switches:         2575
