       N       E                     dE             d eps       ncg     rms          rms(c)
DAV:   1     0.355358194230E+03    0.35536E+03   -0.20528E+04   960   0.105E+03
DAV:   2    -0.251247059817E+02   -0.38048E+03   -0.36825E+03  1344   0.209E+02
DAV:   3    -0.633933764089E+02   -0.38269E+02   -0.37594E+02  1144   0.692E+01
DAV:   4    -0.647701347991E+02   -0.13768E+01   -0.13671E+01  1384   0.146E+01
DAV:   5    -0.648115681933E+02   -0.41433E-01   -0.41390E-01  1448   0.238E+00    0.175E+01
DAV:   6    -0.644869653452E+02    0.32460E+00   -0.19873E-01  1248   0.164E+00    0.104E+01
DAV:   7    -0.643383760638E+02    0.14859E+00   -0.36113E-01  1184   0.226E+00    0.437E-01
DAV:   8    -0.643380916088E+02    0.28445E-03   -0.31828E-02  1240   0.727E-01    0.231E-01
DAV:   9    -0.643380562626E+02    0.35346E-04   -0.17458E-03  1432   0.171E-01    0.193E-01
DAV:  10    -0.643378087444E+02    0.24752E-03   -0.37269E-04  1184   0.757E-02    0.141E-01
DAV:  11    -0.643375613018E+02    0.24744E-03   -0.39084E-04  1232   0.732E-02    0.444E-02
DAV:  12    -0.643376394183E+02   -0.78117E-04   -0.53104E-05  1200   0.282E-02    0.158E-02
DAV:  13    -0.643378728994E+02   -0.23348E-03   -0.84320E-05  1120   0.336E-02    0.320E-02
DAV:  14    -0.643380155107E+02   -0.14261E-03   -0.25251E-05  1008   0.176E-02    0.294E-02
DAV:  15    -0.643380490626E+02   -0.33552E-04   -0.22503E-06   768   0.705E-03    0.201E-02
DAV:  16    -0.643382807110E+02   -0.23165E-03   -0.25060E-05   952   0.153E-02    0.173E-02
DAV:  17    -0.643383013879E+02   -0.20677E-04   -0.19760E-06   800   0.563E-03    0.145E-02
DAV:  18    -0.643383106054E+02   -0.92175E-05   -0.44704E-07   720   0.302E-03
   1 F= -.66512250E+02 E0= -.66512250E+02  d E =-.688892E-07
