<?xml version="1.0" encoding="ISO-8859-1"?>
<modeling>
 <generator>
  <i name="program" type="string">vasp </i>
  <i name="version" type="string">5.4.4.18Apr17-6-g9f103f2a35  </i>
  <i name="subversion" type="string">(build Jun 20 2017 18:00:50) complex            parallel </i>
  <i name="platform" type="string">LinuxIFC </i>
  <i name="date" type="string">2018 03 16 </i>
  <i name="time" type="string">16:03:04 </i>
 </generator>
 <incar>
  <i type="string" name="SYSTEM"> Generic Input</i>
  <i type="int" name="ISTART">     1</i>
  <i type="string" name="PREC">normal    ! precision level</i>
  <i type="int" name="IALGO">    53</i>
  <i type="string" name="ALGO"> Normal    ! SCF minimisation algorithm</i>
  <i type="int" name="INIWAV">     1</i>
  <i type="int" name="NELM">   200</i>
  <i type="int" name="NELMIN">     2</i>
  <i type="int" name="IBRION">     2</i>
  <i name="EDIFF">      0.00001000</i>
  <i name="EDIFFG">     -0.02000000</i>
  <i type="int" name="NSW">     0</i>
  <i type="int" name="ISIF">     3</i>
  <i type="int" name="IWAVPR">    11</i>
  <i type="int" name="NBLOCK">     1</i>
  <i type="int" name="KBLOCK">    40</i>
  <i name="ENCUT">    450.00000000</i>
  <i type="int" name="NEDOS">  2000</i>
  <i type="int" name="ISMEAR">     0</i>
  <i name="SIGMA">      0.01000000</i>
  <i type="int" name="NWRITE">     2</i>
  <i type="logical" name="LVHAR"> T  </i>
  <i type="int" name="LORBIT">    11</i>
  <i type="logical" name="LASPH"> T  </i>
  <i type="int" name="ICORELEVEL">     1</i>
  <v type="int" name="KPOINT_BSE">    -1     0     0     0</v>
  <i type="int" name="NELM">   200</i>
  <i type="string" name="GGA"> PE        ! PBEsol exchange-correlation</i>
  <i type="logical" name="LASPH"> T  </i>
 </incar>
 <structure name="primitive_cell" >
  <crystal>
   <varray name="basis" >
    <v>       3.34288600       0.00000000       0.00000000 </v>
    <v>       0.00000000      32.60240900       0.00000000 </v>
    <v>       0.00000000       0.00000000       4.37483100 </v>
   </varray>
   <i name="volume">    476.79592902 </i>
   <varray name="rec_basis" >
    <v>       0.29914272       0.00000000       0.00000000 </v>
    <v>       0.00000000       0.03067258       0.00000000 </v>
    <v>       0.00000000       0.00000000       0.22858026 </v>
   </varray>
  </crystal>
  <varray name="positions" >
   <v>       0.00000000       0.30672600      -0.08107600 </v>
   <v>      -0.50000000       0.30672600      -0.41892400 </v>
   <v>       0.00000000       0.37246700       0.08107600 </v>
   <v>      -0.50000000       0.37246700       0.41892400 </v>
   <v>       0.00000000       0.46712900      -0.41892400 </v>
   <v>      -0.50000000       0.46712900      -0.08107600 </v>
   <v>      -0.50000000      -0.46712900       0.08107600 </v>
   <v>       0.00000000      -0.46712900       0.41892400 </v>
   <v>       0.00000000      -0.37246700      -0.08107600 </v>
   <v>      -0.50000000      -0.37246700      -0.41892400 </v>
   <v>       0.00000000      -0.30672600       0.08107600 </v>
   <v>      -0.50000000      -0.30672600       0.41892400 </v>
  </varray>
 </structure>
 <varray name="primitive_index" >
  <v type="int" >        1 </v>
  <v type="int" >        2 </v>
  <v type="int" >        3 </v>
  <v type="int" >        4 </v>
  <v type="int" >        6 </v>
  <v type="int" >        5 </v>
  <v type="int" >        7 </v>
  <v type="int" >        8 </v>
  <v type="int" >        9 </v>
  <v type="int" >       10 </v>
  <v type="int" >       11 </v>
  <v type="int" >       12 </v>
 </varray>
 <kpoints>
  <generation param="Gamma">
   <v type="int" name="divisions">       6        1        4 </v>
   <v name="usershift">      0.00000000       0.00000000       0.00000000 </v>
   <v name="genvec1">      0.16666667       0.00000000       0.00000000 </v>
   <v name="genvec2">      0.00000000       1.00000000       0.00000000 </v>
   <v name="genvec3">      0.00000000       0.00000000       0.25000000 </v>
   <v name="shift">      0.00000000       0.00000000       0.00000000 </v>
  </generation>
  <varray name="kpointlist" >
   <v>       0.00000000       0.00000000       0.00000000 </v>
   <v>       0.16666667       0.00000000       0.00000000 </v>
   <v>       0.33333333       0.00000000       0.00000000 </v>
   <v>       0.50000000       0.00000000       0.00000000 </v>
   <v>       0.00000000       0.00000000       0.25000000 </v>
   <v>       0.16666667       0.00000000       0.25000000 </v>
   <v>       0.33333333       0.00000000       0.25000000 </v>
   <v>       0.50000000       0.00000000       0.25000000 </v>
   <v>       0.00000000       0.00000000       0.50000000 </v>
   <v>       0.16666667       0.00000000       0.50000000 </v>
   <v>       0.33333333       0.00000000       0.50000000 </v>
   <v>       0.50000000       0.00000000       0.50000000 </v>
  </varray>
  <varray name="weights" >
   <v>       0.04166667 </v>
   <v>       0.08333333 </v>
   <v>       0.08333333 </v>
   <v>       0.04166667 </v>
   <v>       0.08333333 </v>
   <v>       0.16666667 </v>
   <v>       0.16666667 </v>
   <v>       0.08333333 </v>
   <v>       0.04166667 </v>
   <v>       0.08333333 </v>
   <v>       0.08333333 </v>
   <v>       0.04166667 </v>
  </varray>
 </kpoints>
 <parameters>
  <separator name="general" >
   <i type="string" name="SYSTEM">Generic Input</i>
   <i type="logical" name="LCOMPAT"> F  </i>
  </separator>
  <separator name="electronic" >
   <i type="string" name="PREC">normal</i>
   <i name="ENMAX">    450.00000000</i>
   <i name="ENAUG">    342.92400000</i>
   <i name="EDIFF">      0.00001000</i>
   <i type="int" name="IALGO">    38</i>
   <i type="int" name="IWAVPR">    11</i>
   <i type="int" name="NBANDS">    40</i>
   <i name="NELECT">     60.00000000</i>
   <i type="int" name="TURBO">     0</i>
   <i type="int" name="IRESTART">     0</i>
   <i type="int" name="NREBOOT">     0</i>
   <i type="int" name="NMIN">     0</i>
   <i name="EREF">      0.00000000</i>
   <separator name="electronic smearing" >
    <i type="int" name="ISMEAR">     0</i>
    <i name="SIGMA">      0.01000000</i>
    <i name="KSPACING">      0.50000000</i>
    <i type="logical" name="KGAMMA"> T  </i>
   </separator>
   <separator name="electronic projectors" >
    <i type="logical" name="LREAL"> F  </i>
    <v name="ROPT">      0.00000000</v>
    <i type="int" name="LMAXPAW">  -100</i>
    <i type="int" name="LMAXMIX">     2</i>
    <i type="logical" name="NLSPLINE"> F  </i>
   </separator>
   <separator name="electronic startup" >
    <i type="int" name="ISTART">     0</i>
    <i type="int" name="ICHARG">     2</i>
    <i type="int" name="INIWAV">     1</i>
   </separator>
   <separator name="electronic spin" >
    <i type="int" name="ISPIN">     1</i>
    <i type="logical" name="LNONCOLLINEAR"> F  </i>
    <v name="MAGMOM">      1.00000000      1.00000000      1.00000000      1.00000000      1.00000000      1.00000000      1.00000000      1.00000000      1.00000000      1.00000000      1.00000000      1.00000000</v>
    <i name="NUPDOWN">     -1.00000000</i>
    <i type="logical" name="LSORBIT"> F  </i>
    <v name="SAXIS">      0.00000000      0.00000000      1.00000000</v>
    <i type="logical" name="LSPIRAL"> F  </i>
    <v name="QSPIRAL">      0.00000000      0.00000000      0.00000000</v>
    <i type="logical" name="LZEROZ"> F  </i>
   </separator>
   <separator name="electronic exchange-correlation" >
    <i type="logical" name="LASPH"> T  </i>
    <i type="logical" name="LMETAGGA"> F  </i>
   </separator>
   <separator name="electronic convergence" >
    <i type="int" name="NELM">   200</i>
    <i type="int" name="NELMDL">     0</i>
    <i type="int" name="NELMIN">     2</i>
    <i name="ENINI">    450.00000000</i>
    <separator name="electronic convergence detail" >
     <i type="logical" name="LDIAG"> T  </i>
     <i type="logical" name="LSUBROT"> F  </i>
     <i name="WEIMIN">      0.00000000</i>
     <i name="EBREAK">      0.00000006</i>
     <i name="DEPER">      0.30000000</i>
     <i type="int" name="NRMM">     4</i>
     <i name="TIME">      0.40000000</i>
    </separator>
   </separator>
   <separator name="electronic mixer" >
    <i name="AMIX">      0.40000000</i>
    <i name="BMIX">      1.00000000</i>
    <i name="AMIN">      0.10000000</i>
    <i name="AMIX_MAG">      1.60000000</i>
    <i name="BMIX_MAG">      1.00000000</i>
    <separator name="electronic mixer details" >
     <i type="int" name="IMIX">     4</i>
     <i type="logical" name="MIXFIRST"> F  </i>
     <i type="int" name="MAXMIX">   -45</i>
     <i name="WC">    100.00000000</i>
     <i type="int" name="INIMIX">     1</i>
     <i type="int" name="MIXPRE">     1</i>
     <i type="int" name="MREMOVE">     5</i>
    </separator>
   </separator>
   <separator name="electronic dipolcorrection" >
    <i type="logical" name="LDIPOL"> F  </i>
    <i type="logical" name="LMONO"> F  </i>
    <i type="int" name="IDIPOL">     0</i>
    <i name="EPSILON">      1.00000000</i>
    <v name="DIPOL">   -100.00000000   -100.00000000   -100.00000000</v>
    <i name="EFIELD">      0.00000000</i>
   </separator>
  </separator>
  <separator name="grids" >
   <i type="int" name="NGX">    18</i>
   <i type="int" name="NGY">   180</i>
   <i type="int" name="NGZ">    24</i>
   <i type="int" name="NGXF">    36</i>
   <i type="int" name="NGYF">   360</i>
   <i type="int" name="NGZF">    48</i>
   <i type="logical" name="ADDGRID"> F  </i>
  </separator>
  <separator name="ionic" >
   <i type="int" name="NSW">     0</i>
   <i type="int" name="IBRION">    -1</i>
   <i type="int" name="MDALGO">     0</i>
   <i type="int" name="ISIF">     3</i>
   <i name="PSTRESS">      0.00000000</i>
   <i name="EDIFFG">     -0.02000000</i>
   <i type="int" name="NFREE">     1</i>
   <i name="POTIM">      0.50000000</i>
   <i name="SMASS">     -3.00000000</i>
   <i name="SCALEE">      1.00000000</i>
  </separator>
  <separator name="ionic md" >
   <i name="TEBEG">      0.00010000</i>
   <i name="TEEND">      0.00010000</i>
   <i type="int" name="NBLOCK">     1</i>
   <i type="int" name="KBLOCK">     1</i>
   <i type="int" name="NPACO">   256</i>
   <i name="APACO">     16.00000000</i>
  </separator>
  <separator name="symmetry" >
   <i type="int" name="ISYM">     2</i>
   <i name="SYMPREC">      0.00001000</i>
  </separator>
  <separator name="dos" >
   <i type="int" name="LORBIT">    11</i>
   <v name="RWIGS">     -1.00000000</v>
   <i type="int" name="NEDOS">  2000</i>
   <i name="EMIN">     10.00000000</i>
   <i name="EMAX">    -10.00000000</i>
   <i name="EFERMI">      0.00000000</i>
  </separator>
  <separator name="writing" >
   <i type="int" name="NWRITE">     2</i>
   <i type="logical" name="LWAVE"> T  </i>
   <i type="logical" name="LDOWNSAMPLE"> F  </i>
   <i type="logical" name="LCHARG"> T  </i>
   <i type="logical" name="LPARD"> F  </i>
   <i type="logical" name="LVTOT"> F  </i>
   <i type="logical" name="LVHAR"> T  </i>
   <i type="logical" name="LELF"> F  </i>
   <i type="logical" name="LOPTICS"> F  </i>
   <v name="STM">      0.00000000      0.00000000      0.00000000      0.00000000      0.00000000      0.00000000      0.00000000</v>
  </separator>
  <separator name="performance" >
   <i type="int" name="NPAR">     4</i>
   <i type="int" name="NSIM">     4</i>
   <i type="int" name="NBLK">    -1</i>
   <i type="logical" name="LPLANE"> T  </i>
   <i type="logical" name="LSCALAPACK"> T  </i>
   <i type="logical" name="LSCAAWARE"> F  </i>
   <i type="logical" name="LSCALU"> F  </i>
   <i type="logical" name="LASYNC"> F  </i>
   <i type="logical" name="LORBITALREAL"> F  </i>
  </separator>
  <separator name="miscellaneous" >
   <i type="int" name="IDIOT">     3</i>
   <i type="int" name="ISPECIAL">     0</i>
   <i type="logical" name="LMUSIC"> F  </i>
   <v name="POMASS">     30.97400000</v>
   <v name="DARWINR">      0.00000000</v>
   <v name="DARWINV">      1.00000000</v>
   <i type="logical" name="LCORR"> T  </i>
  </separator>
  <i type="logical" name="GGA_COMPAT"> T  </i>
  <i type="logical" name="LBERRY"> F  </i>
  <i type="int" name="ICORELEVEL">     1</i>
  <i type="int" name="CLNT">     1</i>
  <i type="int" name="CLN">     1</i>
  <i type="int" name="CLL">     0</i>
  <i name="CLZ">      0.00000000</i>
  <i type="logical" name="LDAU"> F  </i>
  <i type="int" name="I_CONSTRAINED_M">     0</i>
  <separator name="electronic exchange-correlation" >
   <i type="string" name="GGA">PE</i>
   <i type="int" name="VOSKOWN">     0</i>
   <i type="logical" name="LHFCALC"> F  </i>
   <i type="string" name="PRECFOCK"></i>
   <i type="logical" name="LSYMGRAD"> F  </i>
   <i type="logical" name="LHFONE"> F  </i>
   <i type="logical" name="LRHFCALC"> F  </i>
   <i type="logical" name="LTHOMAS"> F  </i>
   <i type="logical" name="LMODELHF"> F  </i>
   <i name="ENCUT4O">     -1.00000000</i>
   <i type="int" name="EXXOEP">     0</i>
   <i type="int" name="FOURORBIT">     0</i>
   <i name="AEXX">      0.00000000</i>
   <i name="HFALPHA">      0.00000000</i>
   <i name="MCALPHA">      0.00000000</i>
   <i name="ALDAX">      1.00000000</i>
   <i name="AGGAX">      1.00000000</i>
   <i name="ALDAC">      1.00000000</i>
   <i name="AGGAC">      1.00000000</i>
   <i type="int" name="NKREDX">     1</i>
   <i type="int" name="NKREDY">     1</i>
   <i type="int" name="NKREDZ">     1</i>
   <i type="logical" name="SHIFTRED"> F  </i>
   <i type="logical" name="ODDONLY"> F  </i>
   <i type="logical" name="EVENONLY"> F  </i>
   <i type="int" name="LMAXFOCK">     0</i>
   <i type="int" name="NMAXFOCKAE">     0</i>
   <i type="logical" name="LFOCKAEDFT"> F  </i>
   <i name="HFSCREEN">      0.00000000</i>
   <i name="HFSCREENC">      0.00000000</i>
   <i type="int" name="NBANDSGWLOW">     0</i>
  </separator>
  <separator name="vdW DFT" >
   <i type="logical" name="LUSE_VDW"> F  </i>
   <i name="Zab_VDW">     -0.84910000</i>
   <i name="PARAM1">      0.12340000</i>
   <i name="PARAM2">      1.00000000</i>
   <i name="PARAM3">      0.00000000</i>
  </separator>
  <separator name="model GW" >
   <i type="int" name="MODEL_GW">     0</i>
   <i name="MODEL_EPS0">     23.83979645</i>
   <i name="MODEL_ALPHA">      1.00000000</i>
  </separator>
  <separator name="linear response parameters" >
   <i type="logical" name="LEPSILON"> F  </i>
   <i type="logical" name="LRPA"> F  </i>
   <i type="logical" name="LNABLA"> F  </i>
   <i type="logical" name="LVEL"> F  </i>
   <i type="int" name="KINTER">     0</i>
   <i name="CSHIFT">      0.10000000</i>
   <i name="OMEGAMAX">     -1.00000000</i>
   <i name="DEG_THRESHOLD">      0.00200000</i>
   <i name="RTIME">     -0.10000000</i>
   <i name="WPLASMAI">      0.00000000</i>
   <v name="DFIELD">      0.00000000      0.00000000      0.00000000</v>
   <v name="WPLASMA">      0.00000000      0.00000000      0.00000000      0.00000000      0.00000000      0.00000000      0.00000000      0.00000000      0.00000000</v>
  </separator>
  <separator name="orbital magnetization" >
   <i type="logical" name="NUCIND"> F  </i>
   <v name="MAGPOS">      0.00000000      0.00000000      0.00000000</v>
   <i type="logical" name="LNICSALL"> T  </i>
   <i type="logical" name="ORBITALMAG"> F  </i>
   <i type="logical" name="LMAGBLOCH"> F  </i>
   <i type="logical" name="LCHIMAG"> F  </i>
   <i type="logical" name="LGAUGE"> T  </i>
   <i type="int" name="MAGATOM">     0</i>
   <v name="MAGDIPOL">      0.00000000      0.00000000      0.00000000</v>
   <v name="AVECCONST">      0.00000000      0.00000000      0.00000000</v>
  </separator>
  <separator name="response functions" >
   <i type="logical" name="LADDER"> F  </i>
   <i type="logical" name="LRPAFORCE"> F  </i>
   <i type="logical" name="LFXC"> F  </i>
   <i type="logical" name="LHARTREE"> T  </i>
   <i type="int" name="IBSE">     0</i>
   <v type="int" name="KPOINT">    -1     0     0     0</v>
   <i type="logical" name="LTCTE"> F  </i>
   <i type="logical" name="LTETE"> F  </i>
   <i type="logical" name="LTRIPLET"> F  </i>
   <i type="logical" name="LFXCEPS"> F  </i>
   <i type="logical" name="LFXHEG"> F  </i>
   <i type="int" name="NATURALO">     2</i>
   <i type="logical" name="L2ORDER"> F  </i>
   <i type="logical" name="LMP2LT"> F  </i>
   <i type="logical" name="LUSEW"> F  </i>
   <i name="ENCUTGW">     -2.00000000</i>
   <i name="ENCUTGWSOFT">     -2.00000000</i>
   <i name="ENCUTLF">     -1.00000000</i>
   <i type="int" name="LMAXMP2">    -1</i>
   <i name="SCISSOR">      0.00000000</i>
   <i type="int" name="NOMEGA">     0</i>
   <i type="int" name="NOMEGAR">     0</i>
   <i type="int" name="NBANDSGW">    -1</i>
   <i type="int" name="NBANDSO">    -1</i>
   <i type="int" name="NBANDSV">    -1</i>
   <i type="int" name="NELM">   200</i>
   <i type="int" name="NELMHF">     1</i>
   <i type="int" name="DIM">     3</i>
   <i type="int" name="ANTIRES">     0</i>
   <i name="OMEGAMAX">    -30.00000000</i>
   <i name="OMEGAMIN">    -30.00000000</i>
   <i name="OMEGATL">   -200.00000000</i>
   <i type="int" name="OMEGAGRID">   140</i>
   <i name="CSHIFT">     -0.10000000</i>
   <i type="logical" name="SELFENERGY"> F  </i>
   <i type="logical" name="LSPECTRAL"> F  </i>
   <i type="logical" name="LSPECTRALGW"> F  </i>
   <i type="logical" name="LSINGLES"> F  </i>
   <i type="logical" name="LFERMIGW"> F  </i>
   <i type="logical" name="ODDONLYGW"> F  </i>
   <i type="logical" name="EVENONLYGW"> F  </i>
   <i type="int" name="NKREDLFX">     1</i>
   <i type="int" name="NKREDLFY">     1</i>
   <i type="int" name="NKREDLFZ">     1</i>
   <i type="int" name="MAXMEM">  2800</i>
   <i type="int" name="TELESCOPE">     0</i>
   <i type="int" name="TAUPAR">     1</i>
   <i type="int" name="OMEGAPAR">    -1</i>
   <i name="LAMBDA">      1.00000000</i>
  </separator>
  <separator name="External order field" >
   <i name="OFIELD_KAPPA">      0.00000000</i>
   <v name="OFIELD_K">      0.00000000      0.00000000      0.00000000</v>
   <i name="OFIELD_Q6_NEAR">      0.00000000</i>
   <i name="OFIELD_Q6_FAR">      0.00000000</i>
   <i name="OFIELD_A">      0.00000000</i>
  </separator>
 </parameters>
 <atominfo>
  <atoms>      12 </atoms>
  <types>       1 </types>
  <array name="atoms" >
   <dimension dim="1">ion</dimension>
   <field type="string">element</field>
   <field type="int">atomtype</field>
   <set>
    <rc><c>P </c><c>   1</c></rc>
    <rc><c>P </c><c>   1</c></rc>
    <rc><c>P </c><c>   1</c></rc>
    <rc><c>P </c><c>   1</c></rc>
    <rc><c>P </c><c>   1</c></rc>
    <rc><c>P </c><c>   1</c></rc>
    <rc><c>P </c><c>   1</c></rc>
    <rc><c>P </c><c>   1</c></rc>
    <rc><c>P </c><c>   1</c></rc>
    <rc><c>P </c><c>   1</c></rc>
    <rc><c>P </c><c>   1</c></rc>
    <rc><c>P </c><c>   1</c></rc>
   </set>
  </array>
  <array name="atomtypes" >
   <dimension dim="1">type</dimension>
   <field type="int">atomspertype</field>
   <field type="string">element</field>
   <field>mass</field>
   <field>valence</field>
   <field type="string">pseudopotential</field>
   <set>
    <rc><c>  12</c><c>P </c><c>     30.97400000</c><c>      5.00000000</c><c>  PAW_PBE P 06Sep2000                   </c></rc>
   </set>
  </array>
 </atominfo>
 <structure name="initialpos" >
  <crystal>
   <varray name="basis" >
    <v>       3.34288600       0.00000000       0.00000000 </v>
    <v>       0.00000000      32.60240900       0.00000000 </v>
    <v>       0.00000000       0.00000000       4.37483100 </v>
   </varray>
   <i name="volume">    476.79592902 </i>
   <varray name="rec_basis" >
    <v>       0.29914272       0.00000000       0.00000000 </v>
    <v>       0.00000000       0.03067258       0.00000000 </v>
    <v>       0.00000000       0.00000000       0.22858026 </v>
   </varray>
  </crystal>
  <varray name="positions" >
   <v>       0.00000000       0.30672600       0.91892400 </v>
   <v>       0.50000000       0.30672600       0.58107600 </v>
   <v>       0.00000000       0.37246700       0.08107600 </v>
   <v>       0.50000000       0.37246700       0.41892400 </v>
   <v>       0.50000000       0.46712900       0.91892400 </v>
   <v>       0.00000000       0.46712900       0.58107600 </v>
   <v>       0.50000000       0.53287100       0.08107600 </v>
   <v>       0.00000000       0.53287100       0.41892400 </v>
   <v>       0.00000000       0.62753300       0.91892400 </v>
   <v>       0.50000000       0.62753300       0.58107600 </v>
   <v>       0.00000000       0.69327400       0.08107600 </v>
   <v>       0.50000000       0.69327400       0.41892400 </v>
  </varray>
 </structure>
 <calculation>
  <scstep>
   <time name="dav">    0.54    0.55</time>
   <time name="total">    0.64    0.66</time>
   <energy>
    <i name="alphaZ">     30.28014394 </i>
    <i name="ewald">  14973.24208224 </i>
    <i name="hartreedc"> -16928.93300519 </i>
    <i name="XCdc">     40.33409660 </i>
    <i name="pawpsdc">   1677.12035881 </i>
    <i name="pawaedc">  -1579.18296132 </i>
    <i name="eentropy">     -0.00063864 </i>
    <i name="bandstr">     30.00437984 </i>
    <i name="atom">   2112.49373795 </i>
    <i name="e_fr_energy">    355.35819423 </i>
    <i name="e_wo_entrp">    355.35883287 </i>
    <i name="e_0_energy">    355.35851355 </i>
   </energy>
  </scstep>
  <scstep>
   <time name="dav">    0.67    0.68</time>
   <time name="total">    0.67    0.68</time>
   <energy>
    <i name="e_fr_energy">    -25.12470598 </i>
    <i name="e_wo_entrp">    -25.12470598 </i>
    <i name="e_0_energy">    -25.12470598 </i>
   </energy>
  </scstep>
  <scstep>
   <time name="dav">    0.62    0.62</time>
   <time name="total">    0.62    0.62</time>
   <energy>
    <i name="e_fr_energy">    -63.39337641 </i>
    <i name="e_wo_entrp">    -63.39337641 </i>
    <i name="e_0_energy">    -63.39337641 </i>
   </energy>
  </scstep>
  <scstep>
   <time name="dav">    0.70    0.70</time>
   <time name="total">    0.70    0.70</time>
   <energy>
    <i name="e_fr_energy">    -64.77013480 </i>
    <i name="e_wo_entrp">    -64.77013480 </i>
    <i name="e_0_energy">    -64.77013480 </i>
   </energy>
  </scstep>
  <scstep>
   <time name="dav">    0.73    0.73</time>
   <time name="total">    0.77    0.77</time>
   <energy>
    <i name="e_fr_energy">    -64.81156819 </i>
    <i name="e_wo_entrp">    -64.81156819 </i>
    <i name="e_0_energy">    -64.81156819 </i>
   </energy>
  </scstep>
  <scstep>
   <time name="dav">    0.64    0.64</time>
   <time name="total">    0.76    0.76</time>
   <energy>
    <i name="e_fr_energy">    -64.48696535 </i>
    <i name="e_wo_entrp">    -64.48696535 </i>
    <i name="e_0_energy">    -64.48696535 </i>
   </energy>
  </scstep>
  <scstep>
   <time name="dav">    0.61    0.61</time>
   <time name="total">    0.73    0.73</time>
   <energy>
    <i name="e_fr_energy">    -64.33837606 </i>
    <i name="e_wo_entrp">    -64.33837581 </i>
    <i name="e_0_energy">    -64.33837593 </i>
   </energy>
  </scstep>
  <scstep>
   <time name="dav">    0.64    0.64</time>
   <time name="total">    0.76    0.76</time>
   <energy>
    <i name="e_fr_energy">    -64.33809161 </i>
    <i name="e_wo_entrp">    -64.33809154 </i>
    <i name="e_0_energy">    -64.33809158 </i>
   </energy>
  </scstep>
  <scstep>
   <time name="dav">    0.71    0.71</time>
   <time name="total">    0.83    0.83</time>
   <energy>
    <i name="e_fr_energy">    -64.33805626 </i>
    <i name="e_wo_entrp">    -64.33805620 </i>
    <i name="e_0_energy">    -64.33805623 </i>
   </energy>
  </scstep>
  <scstep>
   <time name="dav">    0.61    0.61</time>
   <time name="total">    0.73    0.73</time>
   <energy>
    <i name="e_fr_energy">    -64.33780874 </i>
    <i name="e_wo_entrp">    -64.33780871 </i>
    <i name="e_0_energy">    -64.33780873 </i>
   </energy>
  </scstep>
  <scstep>
   <time name="dav">    0.63    0.63</time>
   <time name="total">    0.76    0.76</time>
   <energy>
    <i name="e_fr_energy">    -64.33756130 </i>
    <i name="e_wo_entrp">    -64.33756125 </i>
    <i name="e_0_energy">    -64.33756128 </i>
   </energy>
  </scstep>
  <scstep>
   <time name="dav">    0.64    0.64</time>
   <time name="total">    0.76    0.76</time>
   <energy>
    <i name="e_fr_energy">    -64.33763942 </i>
    <i name="e_wo_entrp">    -64.33763936 </i>
    <i name="e_0_energy">    -64.33763939 </i>
   </energy>
  </scstep>
  <scstep>
   <time name="dav">    0.59    0.59</time>
   <time name="total">    0.71    0.71</time>
   <energy>
    <i name="e_fr_energy">    -64.33787290 </i>
    <i name="e_wo_entrp">    -64.33787284 </i>
    <i name="e_0_energy">    -64.33787287 </i>
   </energy>
  </scstep>
  <scstep>
   <time name="dav">    0.55    0.55</time>
   <time name="total">    0.67    0.67</time>
   <energy>
    <i name="e_fr_energy">    -64.33801551 </i>
    <i name="e_wo_entrp">    -64.33801544 </i>
    <i name="e_0_energy">    -64.33801548 </i>
   </energy>
  </scstep>
  <scstep>
   <time name="dav">    0.47    0.47</time>
   <time name="total">    0.59    0.59</time>
   <energy>
    <i name="e_fr_energy">    -64.33804906 </i>
    <i name="e_wo_entrp">    -64.33804900 </i>
    <i name="e_0_energy">    -64.33804903 </i>
   </energy>
  </scstep>
  <scstep>
   <time name="dav">    0.53    0.53</time>
   <time name="total">    0.65    0.65</time>
   <energy>
    <i name="e_fr_energy">    -64.33828071 </i>
    <i name="e_wo_entrp">    -64.33828064 </i>
    <i name="e_0_energy">    -64.33828068 </i>
   </energy>
  </scstep>
  <scstep>
   <time name="dav">    0.48    0.48</time>
   <time name="total">    0.60    0.60</time>
   <energy>
    <i name="e_fr_energy">    -64.33830139 </i>
    <i name="e_wo_entrp">    -64.33830132 </i>
    <i name="e_0_energy">    -64.33830135 </i>
   </energy>
  </scstep>
  <scstep>
   <time name="dav">    0.45    0.45</time>
   <time name="total">    0.62    0.62</time>
   <energy>
    <i name="alphaZ">     30.28014394 </i>
    <i name="ewald">  14973.24208224 </i>
    <i name="hartreedc"> -16968.16803648 </i>
    <i name="XCdc">     43.13917193 </i>
    <i name="pawpsdc">   6296.97865344 </i>
    <i name="pawaedc">  -6199.96018492 </i>
    <i name="eentropy">     -0.00000007 </i>
    <i name="bandstr">   -352.34387863 </i>
    <i name="atom">   2112.49373795 </i>
    <i name="e_fr_energy">    -64.33831061 </i>
    <i name="e_wo_entrp">    -64.33831054 </i>
    <i name="e_0_energy">    -64.33831057 </i>
   </energy>
  </scstep>
  <structure>
   <crystal>
    <varray name="basis" >
     <v>       3.34288600       0.00000000       0.00000000 </v>
     <v>       0.00000000      32.60240900       0.00000000 </v>
     <v>       0.00000000       0.00000000       4.37483100 </v>
    </varray>
    <i name="volume">    476.79592902 </i>
    <varray name="rec_basis" >
     <v>       0.29914272       0.00000000       0.00000000 </v>
     <v>       0.00000000       0.03067258       0.00000000 </v>
     <v>       0.00000000       0.00000000       0.22858026 </v>
    </varray>
   </crystal>
   <varray name="positions" >
    <v>       0.00000000       0.30672600       0.91892400 </v>
    <v>       0.50000000       0.30672600       0.58107600 </v>
    <v>       0.00000000       0.37246700       0.08107600 </v>
    <v>       0.50000000       0.37246700       0.41892400 </v>
    <v>       0.50000000       0.46712900       0.91892400 </v>
    <v>       0.00000000       0.46712900       0.58107600 </v>
    <v>       0.50000000       0.53287100       0.08107600 </v>
    <v>       0.00000000       0.53287100       0.41892400 </v>
    <v>       0.00000000       0.62753300       0.91892400 </v>
    <v>       0.50000000       0.62753300       0.58107600 </v>
    <v>       0.00000000       0.69327400       0.08107600 </v>
    <v>       0.50000000       0.69327400       0.41892400 </v>
   </varray>
  </structure>
  <varray name="forces" >
   <v>       0.00000000       0.08025149      -0.03702605 </v>
   <v>       0.00000000       0.08025149       0.03702605 </v>
   <v>       0.00000000      -0.07603606      -0.02291602 </v>
   <v>       0.00000000      -0.07603606       0.02291602 </v>
   <v>       0.00000000       0.03581819       0.00402771 </v>
   <v>       0.00000000       0.03581819      -0.00402771 </v>
   <v>       0.00000000      -0.03581819      -0.00402771 </v>
   <v>       0.00000000      -0.03581819       0.00402771 </v>
   <v>       0.00000000       0.07603606       0.02291602 </v>
   <v>       0.00000000       0.07603606      -0.02291602 </v>
   <v>       0.00000000      -0.08025149       0.03702605 </v>
   <v>       0.00000000      -0.08025149      -0.03702605 </v>
  </varray>
  <varray name="stress" >
   <v>       0.97261464       0.00000000       0.00000000 </v>
   <v>       0.00000000      -3.20637979       0.00000000 </v>
   <v>       0.00000000       0.00000000       4.15297421 </v>
  </varray>
  <energy>
   <i name="e_fr_energy">    -66.51225013 </i>
   <i name="e_wo_entrp">    -66.51225009 </i>
   <i name="e_0_energy">     -0.00000007 </i>
  </energy>
  <time name="totalsc">   14.34   14.40</time>
  <eigenvalues>
   <array>
    <dimension dim="1">band</dimension>
    <dimension dim="2">kpoint</dimension>
    <dimension dim="3">spin</dimension>
    <field>eigene</field>
    <field>occ</field>
    <set>
     <set comment="spin 1">
      <set comment="kpoint 1">
       <r>  -14.8546    1.0000 </r>
       <r>  -14.7343    1.0000 </r>
       <r>  -14.6656    1.0000 </r>
       <r>  -12.3736    1.0000 </r>
       <r>  -12.1278    1.0000 </r>
       <r>  -11.9480    1.0000 </r>
       <r>   -8.6065    1.0000 </r>
       <r>   -8.5223    1.0000 </r>
       <r>   -8.4921    1.0000 </r>
       <r>   -5.9243    1.0000 </r>
       <r>   -5.5455    1.0000 </r>
       <r>   -5.1272    1.0000 </r>
       <r>   -4.5051    1.0000 </r>
       <r>   -4.5051    1.0000 </r>
       <r>   -4.1875    1.0000 </r>
       <r>   -4.1432    1.0000 </r>
       <r>   -3.9958    1.0000 </r>
       <r>   -3.9218    1.0000 </r>
       <r>   -3.3938    1.0000 </r>
       <r>   -3.2930    1.0000 </r>
       <r>   -3.2432    1.0000 </r>
       <r>   -1.8800    1.0000 </r>
       <r>   -1.7365    1.0000 </r>
       <r>   -1.6248    1.0000 </r>
       <r>   -1.5894    1.0000 </r>
       <r>   -1.5044    1.0000 </r>
       <r>   -1.1081    1.0000 </r>
       <r>   -0.2497    1.0000 </r>
       <r>    0.3542    1.0000 </r>
       <r>    0.9096    1.0000 </r>
       <r>    0.9690    0.0000 </r>
       <r>    1.4967    0.0000 </r>
       <r>    1.5225    0.0000 </r>
       <r>    1.6971    0.0000 </r>
       <r>    1.7047    0.0000 </r>
       <r>    1.8606    0.0000 </r>
       <r>    2.7298    0.0000 </r>
       <r>    2.9004    0.0000 </r>
       <r>    2.9712    0.0000 </r>
       <r>    3.6782    0.0000 </r>
      </set>
      <set comment="kpoint 2">
       <r>  -14.5311    1.0000 </r>
       <r>  -14.4120    1.0000 </r>
       <r>  -14.3446    1.0000 </r>
       <r>  -12.0369    1.0000 </r>
       <r>  -11.7925    1.0000 </r>
       <r>  -11.6138    1.0000 </r>
       <r>   -8.8992    1.0000 </r>
       <r>   -8.8380    1.0000 </r>
       <r>   -8.8319    1.0000 </r>
       <r>   -5.6513    1.0000 </r>
       <r>   -5.2801    1.0000 </r>
       <r>   -4.9725    1.0000 </r>
       <r>   -4.8914    1.0000 </r>
       <r>   -4.8849    1.0000 </r>
       <r>   -4.8534    1.0000 </r>
       <r>   -4.4286    1.0000 </r>
       <r>   -4.3553    1.0000 </r>
       <r>   -4.3445    1.0000 </r>
       <r>   -4.2190    1.0000 </r>
       <r>   -3.8745    1.0000 </r>
       <r>   -3.7303    1.0000 </r>
       <r>   -2.6616    1.0000 </r>
       <r>   -2.5112    1.0000 </r>
       <r>   -2.3460    1.0000 </r>
       <r>   -1.7419    1.0000 </r>
       <r>   -1.4706    1.0000 </r>
       <r>   -0.9681    1.0000 </r>
       <r>   -0.2137    1.0000 </r>
       <r>    0.1867    1.0000 </r>
       <r>    0.4570    1.0000 </r>
       <r>    1.2523    0.0000 </r>
       <r>    1.6569    0.0000 </r>
       <r>    1.8813    0.0000 </r>
       <r>    2.3388    0.0000 </r>
       <r>    2.5508    0.0000 </r>
       <r>    2.5752    0.0000 </r>
       <r>    3.7496    0.0000 </r>
       <r>    3.8753    0.0000 </r>
       <r>    3.9799    0.0000 </r>
       <r>    4.2601    0.0000 </r>
      </set>
      <set comment="kpoint 3">
       <r>  -13.5780    1.0000 </r>
       <r>  -13.4630    1.0000 </r>
       <r>  -13.4000    1.0000 </r>
       <r>  -11.0353    1.0000 </r>
       <r>  -10.7956    1.0000 </r>
       <r>  -10.6206    1.0000 </r>
       <r>  -10.2417    1.0000 </r>
       <r>  -10.1624    1.0000 </r>
       <r>  -10.1374    1.0000 </r>
       <r>   -7.2213    1.0000 </r>
       <r>   -7.0250    1.0000 </r>
       <r>   -6.8869    1.0000 </r>
       <r>   -4.9306    1.0000 </r>
       <r>   -4.9058    1.0000 </r>
       <r>   -4.8494    1.0000 </r>
       <r>   -4.8403    1.0000 </r>
       <r>   -4.6052    1.0000 </r>
       <r>   -4.3158    1.0000 </r>
       <r>   -3.4261    1.0000 </r>
       <r>   -3.1568    1.0000 </r>
       <r>   -3.0338    1.0000 </r>
       <r>   -2.6857    1.0000 </r>
       <r>   -2.3961    1.0000 </r>
       <r>   -2.1618    1.0000 </r>
       <r>   -1.7908    1.0000 </r>
       <r>   -1.5217    1.0000 </r>
       <r>   -1.1901    1.0000 </r>
       <r>   -0.8932    1.0000 </r>
       <r>   -0.7533    1.0000 </r>
       <r>   -0.6899    1.0000 </r>
       <r>    1.1110    0.0000 </r>
       <r>    1.1723    0.0000 </r>
       <r>    1.4341    0.0000 </r>
       <r>    2.0733    0.0000 </r>
       <r>    2.2849    0.0000 </r>
       <r>    2.6025    0.0000 </r>
       <r>    2.6457    0.0000 </r>
       <r>    2.6617    0.0000 </r>
       <r>    2.6691    0.0000 </r>
       <r>    2.9524    0.0000 </r>
      </set>
      <set comment="kpoint 4">
       <r>  -12.0675    1.0000 </r>
       <r>  -12.0675    1.0000 </r>
       <r>  -11.9624    1.0000 </r>
       <r>  -11.9624    1.0000 </r>
       <r>  -11.9101    1.0000 </r>
       <r>  -11.9101    1.0000 </r>
       <r>   -9.3999    1.0000 </r>
       <r>   -9.3999    1.0000 </r>
       <r>   -9.1712    1.0000 </r>
       <r>   -9.1712    1.0000 </r>
       <r>   -9.0051    1.0000 </r>
       <r>   -9.0051    1.0000 </r>
       <r>   -4.4696    1.0000 </r>
       <r>   -4.4696    1.0000 </r>
       <r>   -4.3352    1.0000 </r>
       <r>   -4.3352    1.0000 </r>
       <r>   -4.2896    1.0000 </r>
       <r>   -4.2896    1.0000 </r>
       <r>   -2.4674    1.0000 </r>
       <r>   -2.4674    1.0000 </r>
       <r>   -2.3937    1.0000 </r>
       <r>   -2.3937    1.0000 </r>
       <r>   -2.3933    1.0000 </r>
       <r>   -2.3933    1.0000 </r>
       <r>   -2.0107    1.0000 </r>
       <r>   -2.0107    1.0000 </r>
       <r>   -1.7399    1.0000 </r>
       <r>   -1.7399    1.0000 </r>
       <r>   -1.4878    1.0000 </r>
       <r>   -1.4878    1.0000 </r>
       <r>    1.6190    0.0000 </r>
       <r>    1.6190    0.0000 </r>
       <r>    1.6316    0.0000 </r>
       <r>    1.6316    0.0000 </r>
       <r>    1.7135    0.0000 </r>
       <r>    1.7135    0.0000 </r>
       <r>    2.1549    0.0000 </r>
       <r>    2.1557    0.0000 </r>
       <r>    2.1917    0.0000 </r>
       <r>    2.1936    0.0000 </r>
      </set>
      <set comment="kpoint 5">
       <r>  -14.5032    1.0000 </r>
       <r>  -14.3901    1.0000 </r>
       <r>  -14.3292    1.0000 </r>
       <r>  -12.5961    1.0000 </r>
       <r>  -12.4621    1.0000 </r>
       <r>  -12.4016    1.0000 </r>
       <r>   -9.0057    1.0000 </r>
       <r>   -8.8489    1.0000 </r>
       <r>   -8.7265    1.0000 </r>
       <r>   -6.9120    1.0000 </r>
       <r>   -6.6390    1.0000 </r>
       <r>   -6.4712    1.0000 </r>
       <r>   -4.5488    1.0000 </r>
       <r>   -4.0378    1.0000 </r>
       <r>   -3.3758    1.0000 </r>
       <r>   -3.1166    1.0000 </r>
       <r>   -3.0635    1.0000 </r>
       <r>   -3.0242    1.0000 </r>
       <r>   -2.9834    1.0000 </r>
       <r>   -2.7185    1.0000 </r>
       <r>   -2.7176    1.0000 </r>
       <r>   -1.8650    1.0000 </r>
       <r>   -1.7643    1.0000 </r>
       <r>   -1.7335    1.0000 </r>
       <r>   -1.7258    1.0000 </r>
       <r>   -1.0748    1.0000 </r>
       <r>   -0.4259    1.0000 </r>
       <r>   -0.2672    1.0000 </r>
       <r>   -0.2046    1.0000 </r>
       <r>   -0.0271    1.0000 </r>
       <r>    1.6793    0.0000 </r>
       <r>    2.0059    0.0000 </r>
       <r>    2.1138    0.0000 </r>
       <r>    2.2071    0.0000 </r>
       <r>    2.2571    0.0000 </r>
       <r>    2.2604    0.0000 </r>
       <r>    2.3680    0.0000 </r>
       <r>    2.7086    0.0000 </r>
       <r>    3.2520    0.0000 </r>
       <r>    3.3096    0.0000 </r>
      </set>
      <set comment="kpoint 6">
       <r>  -14.1844    1.0000 </r>
       <r>  -14.0725    1.0000 </r>
       <r>  -14.0128    1.0000 </r>
       <r>  -12.2801    1.0000 </r>
       <r>  -12.1506    1.0000 </r>
       <r>  -12.0941    1.0000 </r>
       <r>   -9.0395    1.0000 </r>
       <r>   -8.8871    1.0000 </r>
       <r>   -8.7740    1.0000 </r>
       <r>   -6.7960    1.0000 </r>
       <r>   -6.5663    1.0000 </r>
       <r>   -6.4197    1.0000 </r>
       <r>   -4.9859    1.0000 </r>
       <r>   -4.8452    1.0000 </r>
       <r>   -4.7163    1.0000 </r>
       <r>   -4.5116    1.0000 </r>
       <r>   -4.0376    1.0000 </r>
       <r>   -3.7235    1.0000 </r>
       <r>   -3.3130    1.0000 </r>
       <r>   -3.1976    1.0000 </r>
       <r>   -2.9140    1.0000 </r>
       <r>   -2.3357    1.0000 </r>
       <r>   -2.1649    1.0000 </r>
       <r>   -2.1434    1.0000 </r>
       <r>   -1.4990    1.0000 </r>
       <r>   -0.9515    1.0000 </r>
       <r>   -0.8608    1.0000 </r>
       <r>   -0.7307    1.0000 </r>
       <r>   -0.4604    1.0000 </r>
       <r>   -0.4121    1.0000 </r>
       <r>    2.0277    0.0000 </r>
       <r>    2.3127    0.0000 </r>
       <r>    2.5880    0.0000 </r>
       <r>    2.8633    0.0000 </r>
       <r>    3.0137    0.0000 </r>
       <r>    3.0656    0.0000 </r>
       <r>    3.3735    0.0000 </r>
       <r>    3.4980    0.0000 </r>
       <r>    3.6080    0.0000 </r>
       <r>    4.3223    0.0000 </r>
      </set>
      <set comment="kpoint 7">
       <r>  -13.2533    1.0000 </r>
       <r>  -13.1461    1.0000 </r>
       <r>  -13.0913    1.0000 </r>
       <r>  -11.4367    1.0000 </r>
       <r>  -11.3343    1.0000 </r>
       <r>  -11.3014    1.0000 </r>
       <r>   -9.7500    1.0000 </r>
       <r>   -9.5899    1.0000 </r>
       <r>   -9.4803    1.0000 </r>
       <r>   -7.5239    1.0000 </r>
       <r>   -7.4368    1.0000 </r>
       <r>   -7.4162    1.0000 </r>
       <r>   -5.8328    1.0000 </r>
       <r>   -5.6649    1.0000 </r>
       <r>   -5.5317    1.0000 </r>
       <r>   -4.7973    1.0000 </r>
       <r>   -4.7529    1.0000 </r>
       <r>   -4.6778    1.0000 </r>
       <r>   -3.3915    1.0000 </r>
       <r>   -3.3107    1.0000 </r>
       <r>   -3.1773    1.0000 </r>
       <r>   -2.5123    1.0000 </r>
       <r>   -2.3681    1.0000 </r>
       <r>   -2.3636    1.0000 </r>
       <r>   -2.2358    1.0000 </r>
       <r>   -1.8477    1.0000 </r>
       <r>   -1.3301    1.0000 </r>
       <r>   -0.9598    1.0000 </r>
       <r>   -0.6597    1.0000 </r>
       <r>   -0.6238    1.0000 </r>
       <r>    1.7036    0.0000 </r>
       <r>    1.8318    0.0000 </r>
       <r>    2.0267    0.0000 </r>
       <r>    2.5148    0.0000 </r>
       <r>    2.7052    0.0000 </r>
       <r>    2.9614    0.0000 </r>
       <r>    3.1525    0.0000 </r>
       <r>    3.3303    0.0000 </r>
       <r>    3.3723    0.0000 </r>
       <r>    3.8742    0.0000 </r>
      </set>
      <set comment="kpoint 8">
       <r>  -11.8544    1.0000 </r>
       <r>  -11.8544    1.0000 </r>
       <r>  -11.7624    1.0000 </r>
       <r>  -11.7624    1.0000 </r>
       <r>  -11.7242    1.0000 </r>
       <r>  -11.7242    1.0000 </r>
       <r>   -9.4308    1.0000 </r>
       <r>   -9.4308    1.0000 </r>
       <r>   -9.2729    1.0000 </r>
       <r>   -9.2729    1.0000 </r>
       <r>   -9.1817    1.0000 </r>
       <r>   -9.1817    1.0000 </r>
       <r>   -5.0174    1.0000 </r>
       <r>   -5.0174    1.0000 </r>
       <r>   -4.8277    1.0000 </r>
       <r>   -4.8277    1.0000 </r>
       <r>   -4.6761    1.0000 </r>
       <r>   -4.6761    1.0000 </r>
       <r>   -3.6864    1.0000 </r>
       <r>   -3.6864    1.0000 </r>
       <r>   -3.4419    1.0000 </r>
       <r>   -3.4419    1.0000 </r>
       <r>   -3.3088    1.0000 </r>
       <r>   -3.3088    1.0000 </r>
       <r>   -1.5492    1.0000 </r>
       <r>   -1.5492    1.0000 </r>
       <r>   -1.2056    1.0000 </r>
       <r>   -1.2056    1.0000 </r>
       <r>   -0.9098    1.0000 </r>
       <r>   -0.9098    1.0000 </r>
       <r>    2.0053    0.0000 </r>
       <r>    2.0053    0.0000 </r>
       <r>    2.3083    0.0000 </r>
       <r>    2.3083    0.0000 </r>
       <r>    2.4551    0.0000 </r>
       <r>    2.4551    0.0000 </r>
       <r>    3.1799    0.0000 </r>
       <r>    3.1799    0.0000 </r>
       <r>    3.4039    0.0000 </r>
       <r>    3.4039    0.0000 </r>
      </set>
      <set comment="kpoint 9">
       <r>  -13.5468    1.0000 </r>
       <r>  -13.5468    1.0000 </r>
       <r>  -13.4770    1.0000 </r>
       <r>  -13.4770    1.0000 </r>
       <r>  -13.4308    1.0000 </r>
       <r>  -13.4308    1.0000 </r>
       <r>   -8.5711    1.0000 </r>
       <r>   -8.5711    1.0000 </r>
       <r>   -8.2545    1.0000 </r>
       <r>   -8.2545    1.0000 </r>
       <r>   -7.9810    1.0000 </r>
       <r>   -7.9810    1.0000 </r>
       <r>   -3.5911    1.0000 </r>
       <r>   -3.5911    1.0000 </r>
       <r>   -2.8283    1.0000 </r>
       <r>   -2.8283    1.0000 </r>
       <r>   -2.4226    1.0000 </r>
       <r>   -2.4226    1.0000 </r>
       <r>   -2.3786    1.0000 </r>
       <r>   -2.3786    1.0000 </r>
       <r>   -2.3335    1.0000 </r>
       <r>   -2.3335    1.0000 </r>
       <r>   -2.0232    1.0000 </r>
       <r>   -2.0232    1.0000 </r>
       <r>   -0.7277    1.0000 </r>
       <r>   -0.7277    1.0000 </r>
       <r>   -0.5197    1.0000 </r>
       <r>   -0.5197    1.0000 </r>
       <r>   -0.4473    1.0000 </r>
       <r>   -0.4473    1.0000 </r>
       <r>    2.1900    0.0000 </r>
       <r>    2.1900    0.0000 </r>
       <r>    2.2336    0.0000 </r>
       <r>    2.2336    0.0000 </r>
       <r>    2.2859    0.0000 </r>
       <r>    2.2859    0.0000 </r>
       <r>    3.4176    0.0000 </r>
       <r>    3.4180    0.0000 </r>
       <r>    3.5665    0.0000 </r>
       <r>    3.5929    0.0000 </r>
      </set>
      <set comment="kpoint 10">
       <r>  -13.2408    1.0000 </r>
       <r>  -13.2408    1.0000 </r>
       <r>  -13.1711    1.0000 </r>
       <r>  -13.1711    1.0000 </r>
       <r>  -13.1259    1.0000 </r>
       <r>  -13.1259    1.0000 </r>
       <r>   -8.4263    1.0000 </r>
       <r>   -8.4263    1.0000 </r>
       <r>   -8.1360    1.0000 </r>
       <r>   -8.1360    1.0000 </r>
       <r>   -7.8954    1.0000 </r>
       <r>   -7.8954    1.0000 </r>
       <r>   -4.3699    1.0000 </r>
       <r>   -4.3699    1.0000 </r>
       <r>   -4.2637    1.0000 </r>
       <r>   -4.2637    1.0000 </r>
       <r>   -4.1657    1.0000 </r>
       <r>   -4.1657    1.0000 </r>
       <r>   -3.3510    1.0000 </r>
       <r>   -3.3510    1.0000 </r>
       <r>   -2.6377    1.0000 </r>
       <r>   -2.6377    1.0000 </r>
       <r>   -1.9678    1.0000 </r>
       <r>   -1.9678    1.0000 </r>
       <r>   -0.8118    1.0000 </r>
       <r>   -0.8118    1.0000 </r>
       <r>   -0.6448    1.0000 </r>
       <r>   -0.6448    1.0000 </r>
       <r>   -0.4915    1.0000 </r>
       <r>   -0.4915    1.0000 </r>
       <r>    2.8451    0.0000 </r>
       <r>    2.8451    0.0000 </r>
       <r>    2.9833    0.0000 </r>
       <r>    2.9833    0.0000 </r>
       <r>    3.0967    0.0000 </r>
       <r>    3.0967    0.0000 </r>
       <r>    3.5137    0.0000 </r>
       <r>    3.5137    0.0000 </r>
       <r>    3.9746    0.0000 </r>
       <r>    3.9746    0.0000 </r>
      </set>
      <set comment="kpoint 11">
       <r>  -12.3829    1.0000 </r>
       <r>  -12.3829    1.0000 </r>
       <r>  -12.3153    1.0000 </r>
       <r>  -12.3153    1.0000 </r>
       <r>  -12.2753    1.0000 </r>
       <r>  -12.2753    1.0000 </r>
       <r>   -8.6634    1.0000 </r>
       <r>   -8.6634    1.0000 </r>
       <r>   -8.5138    1.0000 </r>
       <r>   -8.5138    1.0000 </r>
       <r>   -8.4280    1.0000 </r>
       <r>   -8.4280    1.0000 </r>
       <r>   -5.7958    1.0000 </r>
       <r>   -5.7958    1.0000 </r>
       <r>   -5.5445    1.0000 </r>
       <r>   -5.5445    1.0000 </r>
       <r>   -5.3199    1.0000 </r>
       <r>   -5.3199    1.0000 </r>
       <r>   -3.4352    1.0000 </r>
       <r>   -3.4352    1.0000 </r>
       <r>   -3.0686    1.0000 </r>
       <r>   -3.0686    1.0000 </r>
       <r>   -2.7855    1.0000 </r>
       <r>   -2.7855    1.0000 </r>
       <r>   -1.8730    1.0000 </r>
       <r>   -1.8730    1.0000 </r>
       <r>   -1.3273    1.0000 </r>
       <r>   -1.3273    1.0000 </r>
       <r>   -0.8284    1.0000 </r>
       <r>   -0.8284    1.0000 </r>
       <r>    2.6921    0.0000 </r>
       <r>    2.6921    0.0000 </r>
       <r>    3.2788    0.0000 </r>
       <r>    3.2788    0.0000 </r>
       <r>    3.9565    0.0000 </r>
       <r>    3.9569    0.0000 </r>
       <r>    3.9833    0.0000 </r>
       <r>    3.9840    0.0000 </r>
       <r>    4.0853    0.0000 </r>
       <r>    4.0912    0.0000 </r>
      </set>
      <set comment="kpoint 12">
       <r>  -11.5663    1.0000 </r>
       <r>  -11.5663    1.0000 </r>
       <r>  -11.5104    1.0000 </r>
       <r>  -11.5104    1.0000 </r>
       <r>  -11.5102    1.0000 </r>
       <r>  -11.5102    1.0000 </r>
       <r>   -9.5296    1.0000 </r>
       <r>   -9.5296    1.0000 </r>
       <r>   -9.4662    1.0000 </r>
       <r>   -9.4662    1.0000 </r>
       <r>   -9.4649    1.0000 </r>
       <r>   -9.4649    1.0000 </r>
       <r>   -4.9609    1.0000 </r>
       <r>   -4.9609    1.0000 </r>
       <r>   -4.9461    1.0000 </r>
       <r>   -4.9461    1.0000 </r>
       <r>   -4.6711    1.0000 </r>
       <r>   -4.6711    1.0000 </r>
       <r>   -4.6175    1.0000 </r>
       <r>   -4.6175    1.0000 </r>
       <r>   -4.3753    1.0000 </r>
       <r>   -4.3753    1.0000 </r>
       <r>   -4.3746    1.0000 </r>
       <r>   -4.3746    1.0000 </r>
       <r>   -1.2344    1.0000 </r>
       <r>   -1.2344    1.0000 </r>
       <r>   -1.1803    1.0000 </r>
       <r>   -1.1803    1.0000 </r>
       <r>   -1.0518    1.0000 </r>
       <r>   -1.0518    1.0000 </r>
       <r>    2.6258    0.0000 </r>
       <r>    2.6258    0.0000 </r>
       <r>    2.7587    0.0000 </r>
       <r>    2.7587    0.0000 </r>
       <r>    2.8974    0.0000 </r>
       <r>    2.8974    0.0000 </r>
       <r>    4.8111    0.0000 </r>
       <r>    4.8290    0.0000 </r>
       <r>    4.8651    0.0000 </r>
       <r>    4.8671    0.0000 </r>
      </set>
     </set>
    </set>
   </array>
  </eigenvalues>
  <separator name="orbital magnetization" >
   <v name="MAGDIPOLOUT">      0.00000000      0.00000000      0.00000000</v>
  </separator>
  <dos>
   <i name="efermi">      0.93928173 </i>
   <total>
    <array>
     <dimension dim="1">gridpoints</dimension>
     <dimension dim="2">spin</dimension>
     <field>energy</field>
     <field>total</field>
     <field>integrated</field>
     <set>
      <set comment="spin 1">
       <r>   -15.8407     0.0000     0.0000 </r>
       <r>   -15.8299     0.0000     0.0000 </r>
       <r>   -15.8190     0.0000     0.0000 </r>
       <r>   -15.8082     0.0000     0.0000 </r>
       <r>   -15.7973     0.0000     0.0000 </r>
       <r>   -15.7865     0.0000     0.0000 </r>
       <r>   -15.7756     0.0000     0.0000 </r>
       <r>   -15.7648     0.0000     0.0000 </r>
       <r>   -15.7539     0.0000     0.0000 </r>
       <r>   -15.7431     0.0000     0.0000 </r>
       <r>   -15.7322     0.0000     0.0000 </r>
       <r>   -15.7214     0.0000     0.0000 </r>
       <r>   -15.7105     0.0000     0.0000 </r>
       <r>   -15.6997     0.0000     0.0000 </r>
       <r>   -15.6888     0.0000     0.0000 </r>
       <r>   -15.6779     0.0000     0.0000 </r>
       <r>   -15.6671     0.0000     0.0000 </r>
       <r>   -15.6562     0.0000     0.0000 </r>
       <r>   -15.6454     0.0000     0.0000 </r>
       <r>   -15.6345     0.0000     0.0000 </r>
       <r>   -15.6237     0.0000     0.0000 </r>
       <r>   -15.6128     0.0000     0.0000 </r>
       <r>   -15.6020     0.0000     0.0000 </r>
       <r>   -15.5911     0.0000     0.0000 </r>
       <r>   -15.5803     0.0000     0.0000 </r>
       <r>   -15.5694     0.0000     0.0000 </r>
       <r>   -15.5586     0.0000     0.0000 </r>
       <r>   -15.5477     0.0000     0.0000 </r>
       <r>   -15.5369     0.0000     0.0000 </r>
       <r>   -15.5260     0.0000     0.0000 </r>
       <r>   -15.5152     0.0000     0.0000 </r>
       <r>   -15.5043     0.0000     0.0000 </r>
       <r>   -15.4935     0.0000     0.0000 </r>
       <r>   -15.4826     0.0000     0.0000 </r>
       <r>   -15.4718     0.0000     0.0000 </r>
       <r>   -15.4609     0.0000     0.0000 </r>
       <r>   -15.4500     0.0000     0.0000 </r>
       <r>   -15.4392     0.0000     0.0000 </r>
       <r>   -15.4283     0.0000     0.0000 </r>
       <r>   -15.4175     0.0000     0.0000 </r>
       <r>   -15.4066     0.0000     0.0000 </r>
       <r>   -15.3958     0.0000     0.0000 </r>
       <r>   -15.3849     0.0000     0.0000 </r>
       <r>   -15.3741     0.0000     0.0000 </r>
       <r>   -15.3632     0.0000     0.0000 </r>
       <r>   -15.3524     0.0000     0.0000 </r>
       <r>   -15.3415     0.0000     0.0000 </r>
       <r>   -15.3307     0.0000     0.0000 </r>
       <r>   -15.3198     0.0000     0.0000 </r>
       <r>   -15.3090     0.0000     0.0000 </r>
       <r>   -15.2981     0.0000     0.0000 </r>
       <r>   -15.2873     0.0000     0.0000 </r>
       <r>   -15.2764     0.0000     0.0000 </r>
       <r>   -15.2656     0.0000     0.0000 </r>
       <r>   -15.2547     0.0000     0.0000 </r>
       <r>   -15.2439     0.0000     0.0000 </r>
       <r>   -15.2330     0.0000     0.0000 </r>
       <r>   -15.2221     0.0000     0.0000 </r>
       <r>   -15.2113     0.0000     0.0000 </r>
       <r>   -15.2004     0.0000     0.0000 </r>
       <r>   -15.1896     0.0000     0.0000 </r>
       <r>   -15.1787     0.0000     0.0000 </r>
       <r>   -15.1679     0.0000     0.0000 </r>
       <r>   -15.1570     0.0000     0.0000 </r>
       <r>   -15.1462     0.0000     0.0000 </r>
       <r>   -15.1353     0.0000     0.0000 </r>
       <r>   -15.1245     0.0000     0.0000 </r>
       <r>   -15.1136     0.0000     0.0000 </r>
       <r>   -15.1028     0.0000     0.0000 </r>
       <r>   -15.0919     0.0000     0.0000 </r>
       <r>   -15.0811     0.0000     0.0000 </r>
       <r>   -15.0702     0.0000     0.0000 </r>
       <r>   -15.0594     0.0000     0.0000 </r>
       <r>   -15.0485     0.0000     0.0000 </r>
       <r>   -15.0377     0.0000     0.0000 </r>
       <r>   -15.0268     0.0000     0.0000 </r>
       <r>   -15.0160     0.0000     0.0000 </r>
       <r>   -15.0051     0.0000     0.0000 </r>
       <r>   -14.9942     0.0000     0.0000 </r>
       <r>   -14.9834     0.0000     0.0000 </r>
       <r>   -14.9725     0.0000     0.0000 </r>
       <r>   -14.9617     0.0000     0.0000 </r>
       <r>   -14.9508     0.0000     0.0000 </r>
       <r>   -14.9400     0.0000     0.0000 </r>
       <r>   -14.9291     0.0000     0.0000 </r>
       <r>   -14.9183     0.0000     0.0000 </r>
       <r>   -14.9074     0.0000     0.0000 </r>
       <r>   -14.8966     0.0000     0.0000 </r>
       <r>   -14.8857     0.0000     0.0000 </r>
       <r>   -14.8749     0.0162     0.0002 </r>
       <r>   -14.8640     0.6941     0.0077 </r>
       <r>   -14.8532     3.7655     0.0486 </r>
       <r>   -14.8423     2.8914     0.0800 </r>
       <r>   -14.8315     0.3076     0.0833 </r>
       <r>   -14.8206     0.0040     0.0833 </r>
       <r>   -14.8098     0.0000     0.0833 </r>
       <r>   -14.7989     0.0000     0.0833 </r>
       <r>   -14.7881     0.0000     0.0833 </r>
       <r>   -14.7772     0.0000     0.0833 </r>
       <r>   -14.7663     0.0000     0.0833 </r>
       <r>   -14.7555     0.0105     0.0834 </r>
       <r>   -14.7446     0.5420     0.0893 </r>
       <r>   -14.7338     3.5114     0.1274 </r>
       <r>   -14.7229     3.2010     0.1622 </r>
       <r>   -14.7121     0.4075     0.1666 </r>
       <r>   -14.7012     0.0064     0.1667 </r>
       <r>   -14.6904     0.0018     0.1667 </r>
       <r>   -14.6795     0.1888     0.1687 </r>
       <r>   -14.6687     2.3760     0.1945 </r>
       <r>   -14.6578     4.0813     0.2388 </r>
       <r>   -14.6470     0.9991     0.2497 </r>
       <r>   -14.6361     0.0316     0.2500 </r>
       <r>   -14.6253     0.0001     0.2500 </r>
       <r>   -14.6144     0.0000     0.2500 </r>
       <r>   -14.6036     0.0000     0.2500 </r>
       <r>   -14.5927     0.0000     0.2500 </r>
       <r>   -14.5819     0.0000     0.2500 </r>
       <r>   -14.5710     0.0000     0.2500 </r>
       <r>   -14.5602     0.0003     0.2500 </r>
       <r>   -14.5493     0.0784     0.2509 </r>
       <r>   -14.5384     2.2398     0.2752 </r>
       <r>   -14.5276     8.3183     0.3654 </r>
       <r>   -14.5167     4.8248     0.4178 </r>
       <r>   -14.5059     5.2832     0.4751 </r>
       <r>   -14.4950     8.0560     0.5626 </r>
       <r>   -14.4842     1.8589     0.5827 </r>
       <r>   -14.4733     0.0552     0.5833 </r>
       <r>   -14.4625     0.0002     0.5833 </r>
       <r>   -14.4516     0.0000     0.5833 </r>
       <r>   -14.4408     0.0004     0.5833 </r>
       <r>   -14.4299     0.0854     0.5843 </r>
       <r>   -14.4191     2.3416     0.6097 </r>
       <r>   -14.4082     8.4437     0.7013 </r>
       <r>   -14.3974     6.5142     0.7720 </r>
       <r>   -14.3865     8.6124     0.8655 </r>
       <r>   -14.3757     4.3993     0.9132 </r>
       <r>   -14.3648     0.3478     0.9170 </r>
       <r>   -14.3540     1.3915     0.9321 </r>
       <r>   -14.3431     7.8977     1.0178 </r>
       <r>   -14.3323    10.5028     1.1318 </r>
       <r>   -14.3214     8.7972     1.2273 </r>
       <r>   -14.3105     2.0314     1.2493 </r>
       <r>   -14.2997     0.0647     1.2500 </r>
       <r>   -14.2888     0.0002     1.2500 </r>
       <r>   -14.2780     0.0000     1.2500 </r>
       <r>   -14.2671     0.0000     1.2500 </r>
       <r>   -14.2563     0.0000     1.2500 </r>
       <r>   -14.2454     0.0000     1.2500 </r>
       <r>   -14.2346     0.0000     1.2500 </r>
       <r>   -14.2237     0.0000     1.2500 </r>
       <r>   -14.2129     0.0009     1.2500 </r>
       <r>   -14.2020     0.1940     1.2521 </r>
       <r>   -14.1912     4.9999     1.3064 </r>
       <r>   -14.1803    16.8611     1.4894 </r>
       <r>   -14.1695     8.1265     1.5776 </r>
       <r>   -14.1586     0.5288     1.5833 </r>
       <r>   -14.1478     0.0041     1.5833 </r>
       <r>   -14.1369     0.0000     1.5833 </r>
       <r>   -14.1261     0.0000     1.5833 </r>
       <r>   -14.1152     0.0000     1.5833 </r>
       <r>   -14.1044     0.0001     1.5833 </r>
       <r>   -14.0935     0.0456     1.5838 </r>
       <r>   -14.0826     2.2763     1.6085 </r>
       <r>   -14.0718    14.2521     1.7632 </r>
       <r>   -14.0609    12.5713     1.8996 </r>
       <r>   -14.0501     1.5463     1.9164 </r>
       <r>   -14.0392     0.0264     1.9167 </r>
       <r>   -14.0284     0.4266     1.9213 </r>
       <r>   -14.0175     7.3613     2.0012 </r>
       <r>   -14.0067    17.0367     2.1861 </r>
       <r>   -13.9958     5.6404     2.2473 </r>
       <r>   -13.9850     0.2461     2.2500 </r>
       <r>   -13.9741     0.0012     2.2500 </r>
       <r>   -13.9633     0.0000     2.2500 </r>
       <r>   -13.9524     0.0000     2.2500 </r>
       <r>   -13.9416     0.0000     2.2500 </r>
       <r>   -13.9307     0.0000     2.2500 </r>
       <r>   -13.9199     0.0000     2.2500 </r>
       <r>   -13.9090     0.0000     2.2500 </r>
       <r>   -13.8982     0.0000     2.2500 </r>
       <r>   -13.8873     0.0000     2.2500 </r>
       <r>   -13.8765     0.0000     2.2500 </r>
       <r>   -13.8656     0.0000     2.2500 </r>
       <r>   -13.8547     0.0000     2.2500 </r>
       <r>   -13.8439     0.0000     2.2500 </r>
       <r>   -13.8330     0.0000     2.2500 </r>
       <r>   -13.8222     0.0000     2.2500 </r>
       <r>   -13.8113     0.0000     2.2500 </r>
       <r>   -13.8005     0.0000     2.2500 </r>
       <r>   -13.7896     0.0000     2.2500 </r>
       <r>   -13.7788     0.0000     2.2500 </r>
       <r>   -13.7679     0.0000     2.2500 </r>
       <r>   -13.7571     0.0000     2.2500 </r>
       <r>   -13.7462     0.0000     2.2500 </r>
       <r>   -13.7354     0.0000     2.2500 </r>
       <r>   -13.7245     0.0000     2.2500 </r>
       <r>   -13.7137     0.0000     2.2500 </r>
       <r>   -13.7028     0.0000     2.2500 </r>
       <r>   -13.6920     0.0000     2.2500 </r>
       <r>   -13.6811     0.0000     2.2500 </r>
       <r>   -13.6703     0.0000     2.2500 </r>
       <r>   -13.6594     0.0000     2.2500 </r>
       <r>   -13.6486     0.0000     2.2500 </r>
       <r>   -13.6377     0.0000     2.2500 </r>
       <r>   -13.6268     0.0000     2.2500 </r>
       <r>   -13.6160     0.0000     2.2500 </r>
       <r>   -13.6051     0.0010     2.2500 </r>
       <r>   -13.5943     0.1635     2.2518 </r>
       <r>   -13.5834     3.2434     2.2870 </r>
       <r>   -13.5726     8.5585     2.3799 </r>
       <r>   -13.5617     3.4983     2.4178 </r>
       <r>   -13.5509     4.2504     2.4640 </r>
       <r>   -13.5400     8.4242     2.5554 </r>
       <r>   -13.5292     2.4802     2.5823 </r>
       <r>   -13.5183     0.0955     2.5833 </r>
       <r>   -13.5075     0.0005     2.5833 </r>
       <r>   -13.4966     0.0419     2.5838 </r>
       <r>   -13.4858     1.6102     2.6013 </r>
       <r>   -13.4749     8.4965     2.6935 </r>
       <r>   -13.4641    11.4537     2.8178 </r>
       <r>   -13.4532     7.8435     2.9029 </r>
       <r>   -13.4424     2.0205     2.9248 </r>
       <r>   -13.4315     6.2935     2.9931 </r>
       <r>   -13.4207     7.1695     3.0709 </r>
       <r>   -13.4098     2.3935     3.0969 </r>
       <r>   -13.3989     7.3379     3.1765 </r>
       <r>   -13.3881     6.0615     3.2423 </r>
       <r>   -13.3772     0.6984     3.2499 </r>
       <r>   -13.3664     0.0099     3.2500 </r>
       <r>   -13.3555     0.0000     3.2500 </r>
       <r>   -13.3447     0.0000     3.2500 </r>
       <r>   -13.3338     0.0000     3.2500 </r>
       <r>   -13.3230     0.0000     3.2500 </r>
       <r>   -13.3121     0.0000     3.2500 </r>
       <r>   -13.3013     0.0000     3.2500 </r>
       <r>   -13.2904     0.0000     3.2500 </r>
       <r>   -13.2796     0.0032     3.2500 </r>
       <r>   -13.2687     0.4524     3.2549 </r>
       <r>   -13.2579     7.7958     3.3395 </r>
       <r>   -13.2470    22.5617     3.5844 </r>
       <r>   -13.2362    22.4915     3.8285 </r>
       <r>   -13.2253     7.6838     3.9119 </r>
       <r>   -13.2145     0.4390     3.9166 </r>
       <r>   -13.2036     0.0031     3.9167 </r>
       <r>   -13.1928     0.0341     3.9170 </r>
       <r>   -13.1819     1.9251     3.9379 </r>
       <r>   -13.1710    13.5399     4.0849 </r>
       <r>   -13.1602    14.0417     4.2373 </r>
       <r>   -13.1493    11.0311     4.3570 </r>
       <r>   -13.1385    17.6366     4.5484 </r>
       <r>   -13.1276    15.4059     4.7156 </r>
       <r>   -13.1168    15.4807     4.8836 </r>
       <r>   -13.1059     3.5685     4.9223 </r>
       <r>   -13.0951     8.5909     5.0155 </r>
       <r>   -13.0842    16.7366     5.1972 </r>
       <r>   -13.0734     4.6972     5.2481 </r>
       <r>   -13.0625     0.1719     5.2500 </r>
       <r>   -13.0517     0.0007     5.2500 </r>
       <r>   -13.0408     0.0000     5.2500 </r>
       <r>   -13.0300     0.0000     5.2500 </r>
       <r>   -13.0191     0.0000     5.2500 </r>
       <r>   -13.0083     0.0000     5.2500 </r>
       <r>   -12.9974     0.0000     5.2500 </r>
       <r>   -12.9866     0.0000     5.2500 </r>
       <r>   -12.9757     0.0000     5.2500 </r>
       <r>   -12.9649     0.0000     5.2500 </r>
       <r>   -12.9540     0.0000     5.2500 </r>
       <r>   -12.9431     0.0000     5.2500 </r>
       <r>   -12.9323     0.0000     5.2500 </r>
       <r>   -12.9214     0.0000     5.2500 </r>
       <r>   -12.9106     0.0000     5.2500 </r>
       <r>   -12.8997     0.0000     5.2500 </r>
       <r>   -12.8889     0.0000     5.2500 </r>
       <r>   -12.8780     0.0000     5.2500 </r>
       <r>   -12.8672     0.0000     5.2500 </r>
       <r>   -12.8563     0.0000     5.2500 </r>
       <r>   -12.8455     0.0000     5.2500 </r>
       <r>   -12.8346     0.0000     5.2500 </r>
       <r>   -12.8238     0.0000     5.2500 </r>
       <r>   -12.8129     0.0000     5.2500 </r>
       <r>   -12.8021     0.0000     5.2500 </r>
       <r>   -12.7912     0.0000     5.2500 </r>
       <r>   -12.7804     0.0000     5.2500 </r>
       <r>   -12.7695     0.0000     5.2500 </r>
       <r>   -12.7587     0.0000     5.2500 </r>
       <r>   -12.7478     0.0000     5.2500 </r>
       <r>   -12.7370     0.0000     5.2500 </r>
       <r>   -12.7261     0.0000     5.2500 </r>
       <r>   -12.7152     0.0000     5.2500 </r>
       <r>   -12.7044     0.0000     5.2500 </r>
       <r>   -12.6935     0.0000     5.2500 </r>
       <r>   -12.6827     0.0000     5.2500 </r>
       <r>   -12.6718     0.0000     5.2500 </r>
       <r>   -12.6610     0.0000     5.2500 </r>
       <r>   -12.6501     0.0000     5.2500 </r>
       <r>   -12.6393     0.0000     5.2500 </r>
       <r>   -12.6284     0.0000     5.2500 </r>
       <r>   -12.6176     0.0180     5.2502 </r>
       <r>   -12.6067     0.9935     5.2610 </r>
       <r>   -12.5959     6.8355     5.3352 </r>
       <r>   -12.5850     6.6027     5.4068 </r>
       <r>   -12.5742     0.8929     5.4165 </r>
       <r>   -12.5633     0.0150     5.4167 </r>
       <r>   -12.5525     0.0000     5.4167 </r>
       <r>   -12.5416     0.0000     5.4167 </r>
       <r>   -12.5308     0.0000     5.4167 </r>
       <r>   -12.5199     0.0000     5.4167 </r>
       <r>   -12.5091     0.0000     5.4167 </r>
       <r>   -12.4982     0.0000     5.4167 </r>
       <r>   -12.4873     0.0028     5.4167 </r>
       <r>   -12.4765     0.3215     5.4202 </r>
       <r>   -12.4656     4.4334     5.4683 </r>
       <r>   -12.4548     8.3030     5.5584 </r>
       <r>   -12.4439     2.2194     5.5825 </r>
       <r>   -12.4331     0.0772     5.5833 </r>
       <r>   -12.4222     0.0267     5.5836 </r>
       <r>   -12.4114     1.2374     5.5970 </r>
       <r>   -12.4005     7.4915     5.6783 </r>
       <r>   -12.3897    11.1484     5.7993 </r>
       <r>   -12.3788    19.2437     6.0082 </r>
       <r>   -12.3680    12.4399     6.1432 </r>
       <r>   -12.3571     2.0851     6.1658 </r>
       <r>   -12.3463     0.0790     6.1667 </r>
       <r>   -12.3354     0.0684     6.1674 </r>
       <r>   -12.3246     2.8496     6.1983 </r>
       <r>   -12.3137    15.1636     6.3629 </r>
       <r>   -12.3029    11.4485     6.4871 </r>
       <r>   -12.2920     2.8853     6.5184 </r>
       <r>   -12.2812    18.2121     6.7161 </r>
       <r>   -12.2703    31.6817     7.0599 </r>
       <r>   -12.2594     9.4056     7.1620 </r>
       <r>   -12.2486     0.4287     7.1666 </r>
       <r>   -12.2377     0.0025     7.1667 </r>
       <r>   -12.2269     0.0000     7.1667 </r>
       <r>   -12.2160     0.0000     7.1667 </r>
       <r>   -12.2052     0.0000     7.1667 </r>
       <r>   -12.1943     0.0000     7.1667 </r>
       <r>   -12.1835     0.0001     7.1667 </r>
       <r>   -12.1726     0.0284     7.1670 </r>
       <r>   -12.1618     1.7321     7.1858 </r>
       <r>   -12.1509    13.0752     7.3277 </r>
       <r>   -12.1401    14.1089     7.4808 </r>
       <r>   -12.1292     4.9472     7.5345 </r>
       <r>   -12.1184     3.8060     7.5758 </r>
       <r>   -12.1075     1.5736     7.5929 </r>
       <r>   -12.0967    10.1674     7.7032 </r>
       <r>   -12.0858    16.0590     7.8775 </r>
       <r>   -12.0750     5.7380     7.9397 </r>
       <r>   -12.0641     8.3710     8.0306 </r>
       <r>   -12.0533     4.6828     8.0814 </r>
       <r>   -12.0424     3.5578     8.1200 </r>
       <r>   -12.0315     8.5593     8.2129 </r>
       <r>   -12.0207     3.2523     8.2482 </r>
       <r>   -12.0098     0.1644     8.2500 </r>
       <r>   -11.9990     0.0010     8.2500 </r>
       <r>   -11.9881     0.0021     8.2500 </r>
       <r>   -11.9773     0.2726     8.2530 </r>
       <r>   -11.9664     4.1538     8.2981 </r>
       <r>   -11.9556     9.4659     8.4008 </r>
       <r>   -11.9447     6.5732     8.4721 </r>
       <r>   -11.9339     2.3979     8.4981 </r>
       <r>   -11.9230     0.6861     8.5056 </r>
       <r>   -11.9122     5.3830     8.5640 </r>
       <r>   -11.9013     7.8084     8.6488 </r>
       <r>   -11.8905     1.6085     8.6662 </r>
       <r>   -11.8796     0.0479     8.6667 </r>
       <r>   -11.8688     0.6433     8.6737 </r>
       <r>   -11.8579     8.8673     8.7699 </r>
       <r>   -11.8471    16.6059     8.9502 </r>
       <r>   -11.8362     4.4386     8.9983 </r>
       <r>   -11.8254     0.1542     9.0000 </r>
       <r>   -11.8145     0.0147     9.0002 </r>
       <r>   -11.8036     0.8595     9.0095 </r>
       <r>   -11.7928     6.5192     9.0802 </r>
       <r>   -11.7819     7.0041     9.1562 </r>
       <r>   -11.7711     4.3390     9.2033 </r>
       <r>   -11.7602    15.7352     9.3741 </r>
       <r>   -11.7494    10.6115     9.4893 </r>
       <r>   -11.7385     1.6415     9.5071 </r>
       <r>   -11.7277     8.9585     9.6043 </r>
       <r>   -11.7168    16.5736     9.7842 </r>
       <r>   -11.7060     4.3810     9.8317 </r>
       <r>   -11.6951     0.1504     9.8333 </r>
       <r>   -11.6843     0.0006     9.8333 </r>
       <r>   -11.6734     0.0000     9.8333 </r>
       <r>   -11.6626     0.0000     9.8333 </r>
       <r>   -11.6517     0.0000     9.8333 </r>
       <r>   -11.6409     0.0010     9.8333 </r>
       <r>   -11.6300     0.1651     9.8351 </r>
       <r>   -11.6192     3.2588     9.8705 </r>
       <r>   -11.6083     8.5563     9.9634 </r>
       <r>   -11.5975     3.2151     9.9982 </r>
       <r>   -11.5866     0.1924    10.0003 </r>
       <r>   -11.5757     1.3752    10.0153 </r>
       <r>   -11.5649     7.5112    10.0968 </r>
       <r>   -11.5540     5.8094    10.1598 </r>
       <r>   -11.5432     0.6228    10.1666 </r>
       <r>   -11.5323     0.0368    10.1670 </r>
       <r>   -11.5215     1.7376    10.1858 </r>
       <r>   -11.5106    13.0837    10.3278 </r>
       <r>   -11.4998    13.7860    10.4774 </r>
       <r>   -11.4889     2.0414    10.4996 </r>
       <r>   -11.4781     0.0378    10.5000 </r>
       <r>   -11.4672     0.0003    10.5000 </r>
       <r>   -11.4564     0.0844    10.5009 </r>
       <r>   -11.4455     3.2137    10.5358 </r>
       <r>   -11.4347    15.6131    10.7052 </r>
       <r>   -11.4238    10.7686    10.8221 </r>
       <r>   -11.4130     1.0233    10.8332 </r>
       <r>   -11.4021     0.0118    10.8333 </r>
       <r>   -11.3913     0.0000    10.8333 </r>
       <r>   -11.3804     0.0000    10.8333 </r>
       <r>   -11.3696     0.0000    10.8333 </r>
       <r>   -11.3587     0.0085    10.8334 </r>
       <r>   -11.3478     0.8347    10.8425 </r>
       <r>   -11.3370     9.9120    10.9501 </r>
       <r>   -11.3261    16.1246    11.1250 </r>
       <r>   -11.3153     4.4727    11.1736 </r>
       <r>   -11.3044     9.5418    11.2771 </r>
       <r>   -11.2936    16.3608    11.4547 </r>
       <r>   -11.2827     4.0457    11.4986 </r>
       <r>   -11.2719     0.1293    11.5000 </r>
       <r>   -11.2610     0.0005    11.5000 </r>
       <r>   -11.2502     0.0000    11.5000 </r>
       <r>   -11.2393     0.0000    11.5000 </r>
       <r>   -11.2285     0.0000    11.5000 </r>
       <r>   -11.2176     0.0000    11.5000 </r>
       <r>   -11.2068     0.0000    11.5000 </r>
       <r>   -11.1959     0.0000    11.5000 </r>
       <r>   -11.1851     0.0000    11.5000 </r>
       <r>   -11.1742     0.0000    11.5000 </r>
       <r>   -11.1634     0.0000    11.5000 </r>
       <r>   -11.1525     0.0000    11.5000 </r>
       <r>   -11.1417     0.0000    11.5000 </r>
       <r>   -11.1308     0.0000    11.5000 </r>
       <r>   -11.1199     0.0000    11.5000 </r>
       <r>   -11.1091     0.0000    11.5000 </r>
       <r>   -11.0982     0.0000    11.5000 </r>
       <r>   -11.0874     0.0000    11.5000 </r>
       <r>   -11.0765     0.0000    11.5000 </r>
       <r>   -11.0657     0.0001    11.5000 </r>
       <r>   -11.0548     0.0442    11.5005 </r>
       <r>   -11.0440     1.6486    11.5184 </r>
       <r>   -11.0331     7.8522    11.6036 </r>
       <r>   -11.0223     5.3122    11.6612 </r>
       <r>   -11.0114     0.4947    11.6666 </r>
       <r>   -11.0006     0.0056    11.6667 </r>
       <r>   -10.9897     0.0000    11.6667 </r>
       <r>   -10.9789     0.0000    11.6667 </r>
       <r>   -10.9680     0.0000    11.6667 </r>
       <r>   -10.9572     0.0000    11.6667 </r>
       <r>   -10.9463     0.0000    11.6667 </r>
       <r>   -10.9355     0.0000    11.6667 </r>
       <r>   -10.9246     0.0000    11.6667 </r>
       <r>   -10.9138     0.0000    11.6667 </r>
       <r>   -10.9029     0.0000    11.6667 </r>
       <r>   -10.8920     0.0000    11.6667 </r>
       <r>   -10.8812     0.0000    11.6667 </r>
       <r>   -10.8703     0.0000    11.6667 </r>
       <r>   -10.8595     0.0000    11.6667 </r>
       <r>   -10.8486     0.0000    11.6667 </r>
       <r>   -10.8378     0.0000    11.6667 </r>
       <r>   -10.8269     0.0001    11.6667 </r>
       <r>   -10.8161     0.0284    11.6670 </r>
       <r>   -10.8052     1.2888    11.6810 </r>
       <r>   -10.7944     7.3830    11.7611 </r>
       <r>   -10.7835     5.9762    11.8259 </r>
       <r>   -10.7727     0.6719    11.8332 </r>
       <r>   -10.7618     0.0093    11.8333 </r>
       <r>   -10.7510     0.0000    11.8333 </r>
       <r>   -10.7401     0.0000    11.8333 </r>
       <r>   -10.7293     0.0000    11.8333 </r>
       <r>   -10.7184     0.0000    11.8333 </r>
       <r>   -10.7076     0.0000    11.8333 </r>
       <r>   -10.6967     0.0000    11.8333 </r>
       <r>   -10.6859     0.0000    11.8333 </r>
       <r>   -10.6750     0.0000    11.8333 </r>
       <r>   -10.6641     0.0000    11.8333 </r>
       <r>   -10.6533     0.0000    11.8333 </r>
       <r>   -10.6424     0.0153    11.8335 </r>
       <r>   -10.6316     0.9045    11.8433 </r>
       <r>   -10.6207     6.6310    11.9153 </r>
       <r>   -10.6099     6.8081    11.9892 </r>
       <r>   -10.5990     0.9810    11.9998 </r>
       <r>   -10.5882     0.0176    12.0000 </r>
       <r>   -10.5773     0.0000    12.0000 </r>
       <r>   -10.5665     0.0000    12.0000 </r>
       <r>   -10.5556     0.0000    12.0000 </r>
       <r>   -10.5448     0.0000    12.0000 </r>
       <r>   -10.5339     0.0000    12.0000 </r>
       <r>   -10.5231     0.0000    12.0000 </r>
       <r>   -10.5122     0.0000    12.0000 </r>
       <r>   -10.5014     0.0000    12.0000 </r>
       <r>   -10.4905     0.0000    12.0000 </r>
       <r>   -10.4797     0.0000    12.0000 </r>
       <r>   -10.4688     0.0000    12.0000 </r>
       <r>   -10.4580     0.0000    12.0000 </r>
       <r>   -10.4471     0.0000    12.0000 </r>
       <r>   -10.4362     0.0000    12.0000 </r>
       <r>   -10.4254     0.0000    12.0000 </r>
       <r>   -10.4145     0.0000    12.0000 </r>
       <r>   -10.4037     0.0000    12.0000 </r>
       <r>   -10.3928     0.0000    12.0000 </r>
       <r>   -10.3820     0.0000    12.0000 </r>
       <r>   -10.3711     0.0000    12.0000 </r>
       <r>   -10.3603     0.0000    12.0000 </r>
       <r>   -10.3494     0.0000    12.0000 </r>
       <r>   -10.3386     0.0000    12.0000 </r>
       <r>   -10.3277     0.0000    12.0000 </r>
       <r>   -10.3169     0.0000    12.0000 </r>
       <r>   -10.3060     0.0000    12.0000 </r>
       <r>   -10.2952     0.0000    12.0000 </r>
       <r>   -10.2843     0.0000    12.0000 </r>
       <r>   -10.2735     0.0001    12.0000 </r>
       <r>   -10.2626     0.0235    12.0003 </r>
       <r>   -10.2518     1.1570    12.0128 </r>
       <r>   -10.2409     7.1605    12.0905 </r>
       <r>   -10.2301     6.2458    12.1583 </r>
       <r>   -10.2192     0.7593    12.1665 </r>
       <r>   -10.2083     0.0114    12.1667 </r>
       <r>   -10.1975     0.0000    12.1667 </r>
       <r>   -10.1866     0.0046    12.1667 </r>
       <r>   -10.1758     0.4376    12.1715 </r>
       <r>   -10.1649     5.0552    12.2263 </r>
       <r>   -10.1541     8.1438    12.3147 </r>
       <r>   -10.1432     4.7991    12.3668 </r>
       <r>   -10.1324     8.5962    12.4601 </r>
       <r>   -10.1215     3.4874    12.4979 </r>
       <r>   -10.1107     0.1902    12.5000 </r>
       <r>   -10.0998     0.0012    12.5000 </r>
       <r>   -10.0890     0.0000    12.5000 </r>
       <r>   -10.0781     0.0000    12.5000 </r>
       <r>   -10.0673     0.0000    12.5000 </r>
       <r>   -10.0564     0.0000    12.5000 </r>
       <r>   -10.0456     0.0000    12.5000 </r>
       <r>   -10.0347     0.0000    12.5000 </r>
       <r>   -10.0239     0.0000    12.5000 </r>
       <r>   -10.0130     0.0000    12.5000 </r>
       <r>   -10.0022     0.0000    12.5000 </r>
       <r>    -9.9913     0.0000    12.5000 </r>
       <r>    -9.9804     0.0000    12.5000 </r>
       <r>    -9.9696     0.0000    12.5000 </r>
       <r>    -9.9587     0.0000    12.5000 </r>
       <r>    -9.9479     0.0000    12.5000 </r>
       <r>    -9.9370     0.0000    12.5000 </r>
       <r>    -9.9262     0.0000    12.5000 </r>
       <r>    -9.9153     0.0000    12.5000 </r>
       <r>    -9.9045     0.0000    12.5000 </r>
       <r>    -9.8936     0.0000    12.5000 </r>
       <r>    -9.8828     0.0000    12.5000 </r>
       <r>    -9.8719     0.0000    12.5000 </r>
       <r>    -9.8611     0.0000    12.5000 </r>
       <r>    -9.8502     0.0000    12.5000 </r>
       <r>    -9.8394     0.0000    12.5000 </r>
       <r>    -9.8285     0.0000    12.5000 </r>
       <r>    -9.8177     0.0000    12.5000 </r>
       <r>    -9.8068     0.0000    12.5000 </r>
       <r>    -9.7960     0.0000    12.5000 </r>
       <r>    -9.7851     0.0000    12.5000 </r>
       <r>    -9.7743     0.0094    12.5001 </r>
       <r>    -9.7634     0.8933    12.5098 </r>
       <r>    -9.7525    10.1938    12.6204 </r>
       <r>    -9.7417    15.9617    12.7936 </r>
       <r>    -9.7308     3.5550    12.8322 </r>
       <r>    -9.7200     0.1016    12.8333 </r>
       <r>    -9.7091     0.0003    12.8333 </r>
       <r>    -9.6983     0.0000    12.8333 </r>
       <r>    -9.6874     0.0000    12.8333 </r>
       <r>    -9.6766     0.0000    12.8333 </r>
       <r>    -9.6657     0.0000    12.8333 </r>
       <r>    -9.6549     0.0000    12.8333 </r>
       <r>    -9.6440     0.0000    12.8333 </r>
       <r>    -9.6332     0.0000    12.8333 </r>
       <r>    -9.6223     0.0001    12.8333 </r>
       <r>    -9.6115     0.0344    12.8337 </r>
       <r>    -9.6006     1.9361    12.8547 </r>
       <r>    -9.5898    13.5583    13.0019 </r>
       <r>    -9.5789    13.3212    13.1464 </r>
       <r>    -9.5681     1.8337    13.1663 </r>
       <r>    -9.5572     0.0321    13.1667 </r>
       <r>    -9.5464     0.1363    13.1682 </r>
       <r>    -9.5355     2.9663    13.2003 </r>
       <r>    -9.5247     8.5407    13.2930 </r>
       <r>    -9.5138     3.5186    13.3312 </r>
       <r>    -9.5029     0.2150    13.3336 </r>
       <r>    -9.4921     1.4623    13.3494 </r>
       <r>    -9.4812    12.7240    13.4875 </r>
       <r>    -9.4704    21.6505    13.7225 </r>
       <r>    -9.4595    19.4098    13.9331 </r>
       <r>    -9.4487     6.0688    13.9990 </r>
       <r>    -9.4378     5.0113    14.0534 </r>
       <r>    -9.4270    16.7592    14.2352 </r>
       <r>    -9.4161     8.6260    14.3288 </r>
       <r>    -9.4053     3.8632    14.3708 </r>
       <r>    -9.3944     8.5606    14.4637 </r>
       <r>    -9.3836     3.1888    14.4983 </r>
       <r>    -9.3727     0.1579    14.5000 </r>
       <r>    -9.3619     0.0009    14.5000 </r>
       <r>    -9.3510     0.0000    14.5000 </r>
       <r>    -9.3402     0.0000    14.5000 </r>
       <r>    -9.3293     0.0000    14.5000 </r>
       <r>    -9.3185     0.0000    14.5000 </r>
       <r>    -9.3076     0.0000    14.5000 </r>
       <r>    -9.2968     0.0117    14.5001 </r>
       <r>    -9.2859     1.0159    14.5112 </r>
       <r>    -9.2750    10.7373    14.6277 </r>
       <r>    -9.2642    15.6331    14.7973 </r>
       <r>    -9.2533     3.2317    14.8324 </r>
       <r>    -9.2425     0.0853    14.8333 </r>
       <r>    -9.2316     0.0003    14.8333 </r>
       <r>    -9.2208     0.0000    14.8333 </r>
       <r>    -9.2099     0.0010    14.8333 </r>
       <r>    -9.1991     0.2135    14.8357 </r>
       <r>    -9.1882     5.3643    14.8939 </r>
       <r>    -9.1774    19.7500    15.1082 </r>
       <r>    -9.1665    16.3440    15.2856 </r>
       <r>    -9.1557     4.1803    15.3309 </r>
       <r>    -9.1448     0.2184    15.3333 </r>
       <r>    -9.1340     0.0015    15.3333 </r>
       <r>    -9.1231     0.0000    15.3333 </r>
       <r>    -9.1123     0.0000    15.3333 </r>
       <r>    -9.1014     0.0000    15.3333 </r>
       <r>    -9.0906     0.0000    15.3333 </r>
       <r>    -9.0797     0.0000    15.3333 </r>
       <r>    -9.0689     0.0005    15.3333 </r>
       <r>    -9.0580     0.1367    15.3348 </r>
       <r>    -9.0471     4.1667    15.3800 </r>
       <r>    -9.0363    16.4427    15.5585 </r>
       <r>    -9.0254     9.3243    15.6597 </r>
       <r>    -9.0146     3.6306    15.6991 </r>
       <r>    -9.0037    15.2459    15.8645 </r>
       <r>    -8.9929    11.3043    15.9872 </r>
       <r>    -8.9820     1.1640    15.9998 </r>
       <r>    -8.9712     0.0147    16.0000 </r>
       <r>    -8.9603     0.0000    16.0000 </r>
       <r>    -8.9495     0.0000    16.0000 </r>
       <r>    -8.9386     0.0000    16.0000 </r>
       <r>    -8.9278     0.0004    16.0000 </r>
       <r>    -8.9169     0.0946    16.0010 </r>
       <r>    -8.9061     2.5750    16.0290 </r>
       <r>    -8.8952    12.1759    16.1611 </r>
       <r>    -8.8844    20.2525    16.3809 </r>
       <r>    -8.8735    10.1423    16.4910 </r>
       <r>    -8.8627     1.2268    16.5043 </r>
       <r>    -8.8518     5.2762    16.5615 </r>
       <r>    -8.8410    14.4278    16.7181 </r>
       <r>    -8.8301    17.7773    16.9110 </r>
       <r>    -8.8192     7.5764    16.9933 </r>
       <r>    -8.8084     0.6137    16.9999 </r>
       <r>    -8.7975     0.0200    17.0001 </r>
       <r>    -8.7867     1.0927    17.0120 </r>
       <r>    -8.7758    11.0502    17.1319 </r>
       <r>    -8.7650    15.4273    17.2993 </r>
       <r>    -8.7541     3.0554    17.3325 </r>
       <r>    -8.7433     0.2096    17.3348 </r>
       <r>    -8.7324     2.9265    17.3665 </r>
       <r>    -8.7216     8.5356    17.4592 </r>
       <r>    -8.7107     3.5622    17.4978 </r>
       <r>    -8.6999     0.1989    17.5000 </r>
       <r>    -8.6890     0.0059    17.5000 </r>
       <r>    -8.6782     0.5675    17.5062 </r>
       <r>    -8.6673     8.3896    17.5973 </r>
[...]
        <r>  0.0000  0.0205  0.0366  0.0006  0.0000  0.0000  0.0000  0.0000  0.0000 </r>
        <r>  0.0000  0.0004  0.0007  0.0314  0.0000  0.0000  0.0000  0.0000  0.0000 </r>
        <r>  0.0000  0.0205  0.0366  0.0006  0.0000  0.0000  0.0000  0.0000  0.0000 </r>
        <r>  0.0000  0.0004  0.0007  0.0314  0.0000  0.0000  0.0000  0.0000  0.0000 </r>
        <r>  0.0005  0.0001  0.0002  0.0076  0.0000  0.0000  0.0000  0.0000  0.0000 </r>
        <r>  0.0290  0.0040  0.0131  0.0001  0.0000  0.0000  0.0000  0.0000  0.0000 </r>
        <r>  0.0006  0.0001  0.0004  0.0145  0.0000  0.0000  0.0000  0.0000  0.0000 </r>
        <r>  0.0306  0.0067  0.0218  0.0003  0.0000  0.0000  0.0000  0.0000  0.0000 </r>
       </set>
       <set comment="band 25">
        <r>  0.0001  0.0017  0.0008  0.0003  0.0000  0.0000  0.0000  0.0000  0.0000 </r>
        <r>  0.0001  0.0010  0.0005  0.0005  0.0000  0.0000  0.0000  0.0000  0.0000 </r>
        <r>  0.0003  0.0001  0.0015  0.0006  0.0000  0.0000  0.0000  0.0000  0.0000 </r>
        <r>  0.0002  0.0000  0.0009  0.0009  0.0000  0.0000  0.0000  0.0000  0.0000 </r>
        <r>  0.0075  0.0574  0.0083  0.0120  0.0000  0.0000  0.0000  0.0000  0.0000 </r>
        <r>  0.0125  0.0957  0.0138  0.0072  0.0000  0.0000  0.0000  0.0000  0.0000 </r>
        <r>  0.0075  0.0574  0.0083  0.0120  0.0000  0.0000  0.0000  0.0000  0.0000 </r>
        <r>  0.0125  0.0957  0.0138  0.0072  0.0000  0.0000  0.0000  0.0000  0.0000 </r>
        <r>  0.0003  0.0001  0.0015  0.0006  0.0000  0.0000  0.0000  0.0000  0.0000 </r>
        <r>  0.0002  0.0000  0.0009  0.0009  0.0000  0.0000  0.0000  0.0000  0.0000 </r>
        <r>  0.0001  0.0017  0.0008  0.0003  0.0000  0.0000  0.0000  0.0000  0.0000 </r>
        <r>  0.0001  0.0010  0.0005  0.0005  0.0000  0.0000  0.0000  0.0000  0.0000 </r>
       </set>
       <set comment="band 26">
        <r>  0.0001  0.0010  0.0005  0.0005  0.0000  0.0000  0.0000  0.0000  0.0000 </r>
        <r>  0.0001  0.0017  0.0008  0.0003  0.0000  0.0000  0.0000  0.0000  0.0000 </r>
        <r>  0.0002  0.0000  0.0009  0.0009  0.0000  0.0000  0.0000  0.0000  0.0000 </r>
        <r>  0.0003  0.0001  0.0015  0.0006  0.0000  0.0000  0.0000  0.0000  0.0000 </r>
        <r>  0.0125  0.0957  0.0138  0.0072  0.0000  0.0000  0.0000  0.0000  0.0000 </r>
        <r>  0.0075  0.0574  0.0083  0.0120  0.0000  0.0000  0.0000  0.0000  0.0000 </r>
        <r>  0.0125  0.0957  0.0138  0.0072  0.0000  0.0000  0.0000  0.0000  0.0000 </r>
        <r>  0.0075  0.0574  0.0083  0.0120  0.0000  0.0000  0.0000  0.0000  0.0000 </r>
        <r>  0.0002  0.0000  0.0009  0.0009  0.0000  0.0000  0.0000  0.0000  0.0000 </r>
        <r>  0.0003  0.0001  0.0015  0.0006  0.0000  0.0000  0.0000  0.0000  0.0000 </r>
        <r>  0.0001  0.0010  0.0005  0.0005  0.0000  0.0000  0.0000  0.0000  0.0000 </r>
        <r>  0.0001  0.0017  0.0008  0.0003  0.0000  0.0000  0.0000  0.0000  0.0000 </r>
       </set>
       <set comment="band 27">
        <r>  0.0116  0.0718  0.0115  0.0009  0.0000  0.0000  0.0000  0.0000  0.0000 </r>
        <r>  0.0010  0.0062  0.0010  0.0099  0.0000  0.0000  0.0000  0.0000  0.0000 </r>
        <r>  0.0074  0.0716  0.0093  0.0007  0.0000  0.0000  0.0000  0.0000  0.0000 </r>
        <r>  0.0006  0.0062  0.0008  0.0083  0.0000  0.0000  0.0000  0.0000  0.0000 </r>
        <r>  0.0001  0.0002  0.0000  0.0000  0.0000  0.0000  0.0000  0.0000  0.0000 </r>
        <r>  0.0007  0.0019  0.0001  0.0000  0.0000  0.0000  0.0000  0.0000  0.0000 </r>
        <r>  0.0001  0.0002  0.0000  0.0000  0.0000  0.0000  0.0000  0.0000  0.0000 </r>
        <r>  0.0007  0.0019  0.0001  0.0000  0.0000  0.0000  0.0000  0.0000  0.0000 </r>
        <r>  0.0074  0.0716  0.0093  0.0007  0.0000  0.0000  0.0000  0.0000  0.0000 </r>
        <r>  0.0006  0.0062  0.0008  0.0083  0.0000  0.0000  0.0000  0.0000  0.0000 </r>
        <r>  0.0116  0.0718  0.0115  0.0009  0.0000  0.0000  0.0000  0.0000  0.0000 </r>
        <r>  0.0010  0.0062  0.0010  0.0099  0.0000  0.0000  0.0000  0.0000  0.0000 </r>
       </set>
       <set comment="band 28">
        <r>  0.0010  0.0062  0.0010  0.0099  0.0000  0.0000  0.0000  0.0000  0.0000 </r>
        <r>  0.0116  0.0718  0.0115  0.0009  0.0000  0.0000  0.0000  0.0000  0.0000 </r>
        <r>  0.0006  0.0062  0.0008  0.0083  0.0000  0.0000  0.0000  0.0000  0.0000 </r>
        <r>  0.0074  0.0716  0.0093  0.0007  0.0000  0.0000  0.0000  0.0000  0.0000 </r>
        <r>  0.0007  0.0019  0.0001  0.0000  0.0000  0.0000  0.0000  0.0000  0.0000 </r>
        <r>  0.0001  0.0002  0.0000  0.0000  0.0000  0.0000  0.0000  0.0000  0.0000 </r>
        <r>  0.0007  0.0019  0.0001  0.0000  0.0000  0.0000  0.0000  0.0000  0.0000 </r>
        <r>  0.0001  0.0002  0.0000  0.0000  0.0000  0.0000  0.0000  0.0000  0.0000 </r>
        <r>  0.0006  0.0062  0.0008  0.0083  0.0000  0.0000  0.0000  0.0000  0.0000 </r>
        <r>  0.0074  0.0716  0.0093  0.0007  0.0000  0.0000  0.0000  0.0000  0.0000 </r>
        <r>  0.0010  0.0062  0.0010  0.0099  0.0000  0.0000  0.0000  0.0000  0.0000 </r>
        <r>  0.0116  0.0718  0.0115  0.0009  0.0000  0.0000  0.0000  0.0000  0.0000 </r>
       </set>
       <set comment="band 29">
        <r>  0.0002  0.0016  0.0002  0.0103  0.0000  0.0000  0.0000  0.0000  0.0000 </r>
        <r>  0.0112  0.0782  0.0119  0.0002  0.0000  0.0000  0.0000  0.0000  0.0000 </r>
        <r>  0.0002  0.0016  0.0002  0.0099  0.0000  0.0000  0.0000  0.0000  0.0000 </r>
        <r>  0.0102  0.0783  0.0115  0.0002  0.0000  0.0000  0.0000  0.0000  0.0000 </r>
        <r>  0.0000  0.0008  0.0033  0.0000  0.0000  0.0000  0.0000  0.0000  0.0000 </r>
        <r>  0.0000  0.0000  0.0001  0.0021  0.0000  0.0000  0.0000  0.0000  0.0000 </r>
        <r>  0.0000  0.0008  0.0033  0.0000  0.0000  0.0000  0.0000  0.0000  0.0000 </r>
        <r>  0.0000  0.0000  0.0001  0.0021  0.0000  0.0000  0.0000  0.0000  0.0000 </r>
        <r>  0.0002  0.0016  0.0002  0.0099  0.0000  0.0000  0.0000  0.0000  0.0000 </r>
        <r>  0.0102  0.0783  0.0115  0.0002  0.0000  0.0000  0.0000  0.0000  0.0000 </r>
        <r>  0.0002  0.0016  0.0002  0.0103  0.0000  0.0000  0.0000  0.0000  0.0000 </r>
        <r>  0.0112  0.0782  0.0119  0.0002  0.0000  0.0000  0.0000  0.0000  0.0000 </r>
       </set>
       <set comment="band 30">
        <r>  0.0112  0.0782  0.0119  0.0002  0.0000  0.0000  0.0000  0.0000  0.0000 </r>
        <r>  0.0002  0.0016  0.0002  0.0103  0.0000  0.0000  0.0000  0.0000  0.0000 </r>
        <r>  0.0102  0.0783  0.0115  0.0002  0.0000  0.0000  0.0000  0.0000  0.0000 </r>
        <r>  0.0002  0.0016  0.0002  0.0099  0.0000  0.0000  0.0000  0.0000  0.0000 </r>
        <r>  0.0000  0.0000  0.0001  0.0021  0.0000  0.0000  0.0000  0.0000  0.0000 </r>
        <r>  0.0000  0.0008  0.0033  0.0000  0.0000  0.0000  0.0000  0.0000  0.0000 </r>
        <r>  0.0000  0.0000  0.0001  0.0021  0.0000  0.0000  0.0000  0.0000  0.0000 </r>
        <r>  0.0000  0.0008  0.0033  0.0000  0.0000  0.0000  0.0000  0.0000  0.0000 </r>
        <r>  0.0102  0.0783  0.0115  0.0002  0.0000  0.0000  0.0000  0.0000  0.0000 </r>
        <r>  0.0002  0.0016  0.0002  0.0099  0.0000  0.0000  0.0000  0.0000  0.0000 </r>
        <r>  0.0112  0.0782  0.0119  0.0002  0.0000  0.0000  0.0000  0.0000  0.0000 </r>
        <r>  0.0002  0.0016  0.0002  0.0103  0.0000  0.0000  0.0000  0.0000  0.0000 </r>
       </set>
       <set comment="band 31">
        <r>  0.0014  0.0056  0.0004  0.0028  0.0000  0.0000  0.0000  0.0000  0.0000 </r>
        <r>  0.0099  0.0411  0.0030  0.0004  0.0000  0.0000  0.0000  0.0000  0.0000 </r>
        <r>  0.0013  0.0058  0.0002  0.0020  0.0000  0.0000  0.0000  0.0000  0.0000 </r>
        <r>  0.0092  0.0423  0.0013  0.0003  0.0000  0.0000  0.0000  0.0000  0.0000 </r>
        <r>  0.0058  0.0050  0.0008  0.0000  0.0000  0.0000  0.0000  0.0000  0.0000 </r>
        <r>  0.0008  0.0007  0.0001  0.0003  0.0000  0.0000  0.0000  0.0000  0.0000 </r>
        <r>  0.0058  0.0050  0.0008  0.0000  0.0000  0.0000  0.0000  0.0000  0.0000 </r>
        <r>  0.0008  0.0007  0.0001  0.0003  0.0000  0.0000  0.0000  0.0000  0.0000 </r>
        <r>  0.0013  0.0058  0.0002  0.0020  0.0000  0.0000  0.0000  0.0000  0.0000 </r>
        <r>  0.0092  0.0423  0.0013  0.0003  0.0000  0.0000  0.0000  0.0000  0.0000 </r>
        <r>  0.0014  0.0056  0.0004  0.0028  0.0000  0.0000  0.0000  0.0000  0.0000 </r>
        <r>  0.0099  0.0411  0.0030  0.0004  0.0000  0.0000  0.0000  0.0000  0.0000 </r>
       </set>
       <set comment="band 32">
        <r>  0.0099  0.0411  0.0030  0.0004  0.0000  0.0000  0.0000  0.0000  0.0000 </r>
        <r>  0.0014  0.0056  0.0004  0.0028  0.0000  0.0000  0.0000  0.0000  0.0000 </r>
        <r>  0.0092  0.0423  0.0013  0.0003  0.0000  0.0000  0.0000  0.0000  0.0000 </r>
        <r>  0.0013  0.0058  0.0002  0.0020  0.0000  0.0000  0.0000  0.0000  0.0000 </r>
        <r>  0.0008  0.0007  0.0001  0.0003  0.0000  0.0000  0.0000  0.0000  0.0000 </r>
        <r>  0.0058  0.0050  0.0008  0.0000  0.0000  0.0000  0.0000  0.0000  0.0000 </r>
        <r>  0.0008  0.0007  0.0001  0.0003  0.0000  0.0000  0.0000  0.0000  0.0000 </r>
        <r>  0.0058  0.0050  0.0008  0.0000  0.0000  0.0000  0.0000  0.0000  0.0000 </r>
        <r>  0.0092  0.0423  0.0013  0.0003  0.0000  0.0000  0.0000  0.0000  0.0000 </r>
        <r>  0.0013  0.0058  0.0002  0.0020  0.0000  0.0000  0.0000  0.0000  0.0000 </r>
        <r>  0.0099  0.0411  0.0030  0.0004  0.0000  0.0000  0.0000  0.0000  0.0000 </r>
        <r>  0.0014  0.0056  0.0004  0.0028  0.0000  0.0000  0.0000  0.0000  0.0000 </r>
       </set>
       <set comment="band 33">
        <r>  0.0003  0.0109  0.0003  0.0000  0.0000  0.0000  0.0000  0.0000  0.0000 </r>
        <r>  0.0001  0.0032  0.0001  0.0002  0.0000  0.0000  0.0000  0.0000  0.0000 </r>
        <r>  0.0068  0.0000  0.0031  0.0004  0.0000  0.0000  0.0000  0.0000  0.0000 </r>
        <r>  0.0020  0.0000  0.0009  0.0014  0.0000  0.0000  0.0000  0.0000  0.0000 </r>
        <r>  0.0050  0.0220  0.0012  0.0046  0.0000  0.0000  0.0000  0.0000  0.0000 </r>
        <r>  0.0171  0.0749  0.0040  0.0013  0.0000  0.0000  0.0000  0.0000  0.0000 </r>
        <r>  0.0050  0.0220  0.0012  0.0046  0.0000  0.0000  0.0000  0.0000  0.0000 </r>
        <r>  0.0171  0.0749  0.0040  0.0013  0.0000  0.0000  0.0000  0.0000  0.0000 </r>
        <r>  0.0068  0.0000  0.0031  0.0004  0.0000  0.0000  0.0000  0.0000  0.0000 </r>
        <r>  0.0020  0.0000  0.0009  0.0014  0.0000  0.0000  0.0000  0.0000  0.0000 </r>
        <r>  0.0003  0.0109  0.0003  0.0000  0.0000  0.0000  0.0000  0.0000  0.0000 </r>
        <r>  0.0001  0.0032  0.0001  0.0002  0.0000  0.0000  0.0000  0.0000  0.0000 </r>
       </set>
       <set comment="band 34">
        <r>  0.0001  0.0032  0.0001  0.0002  0.0000  0.0000  0.0000  0.0000  0.0000 </r>
        <r>  0.0003  0.0109  0.0003  0.0000  0.0000  0.0000  0.0000  0.0000  0.0000 </r>
        <r>  0.0020  0.0000  0.0009  0.0014  0.0000  0.0000  0.0000  0.0000  0.0000 </r>
        <r>  0.0068  0.0000  0.0031  0.0004  0.0000  0.0000  0.0000  0.0000  0.0000 </r>
        <r>  0.0171  0.0749  0.0040  0.0013  0.0000  0.0000  0.0000  0.0000  0.0000 </r>
        <r>  0.0050  0.0220  0.0012  0.0046  0.0000  0.0000  0.0000  0.0000  0.0000 </r>
        <r>  0.0171  0.0749  0.0040  0.0013  0.0000  0.0000  0.0000  0.0000  0.0000 </r>
        <r>  0.0050  0.0220  0.0012  0.0046  0.0000  0.0000  0.0000  0.0000  0.0000 </r>
        <r>  0.0020  0.0000  0.0009  0.0014  0.0000  0.0000  0.0000  0.0000  0.0000 </r>
        <r>  0.0068  0.0000  0.0031  0.0004  0.0000  0.0000  0.0000  0.0000  0.0000 </r>
        <r>  0.0001  0.0032  0.0001  0.0002  0.0000  0.0000  0.0000  0.0000  0.0000 </r>
        <r>  0.0003  0.0109  0.0003  0.0000  0.0000  0.0000  0.0000  0.0000  0.0000 </r>
       </set>
       <set comment="band 35">
        <r>  0.0076  0.0330  0.0013  0.0011  0.0000  0.0000  0.0000  0.0000  0.0000 </r>
        <r>  0.0050  0.0217  0.0009  0.0016  0.0000  0.0000  0.0000  0.0000  0.0000 </r>
        <r>  0.0079  0.0325  0.0028  0.0016  0.0000  0.0000  0.0000  0.0000  0.0000 </r>
        <r>  0.0052  0.0214  0.0019  0.0024  0.0000  0.0000  0.0000  0.0000  0.0000 </r>
        <r>  0.0010  0.0029  0.0015  0.0009  0.0000  0.0000  0.0000  0.0000  0.0000 </r>
        <r>  0.0016  0.0044  0.0022  0.0006  0.0000  0.0000  0.0000  0.0000  0.0000 </r>
        <r>  0.0010  0.0029  0.0015  0.0009  0.0000  0.0000  0.0000  0.0000  0.0000 </r>
        <r>  0.0016  0.0044  0.0022  0.0006  0.0000  0.0000  0.0000  0.0000  0.0000 </r>
        <r>  0.0079  0.0325  0.0028  0.0016  0.0000  0.0000  0.0000  0.0000  0.0000 </r>
        <r>  0.0052  0.0214  0.0019  0.0024  0.0000  0.0000  0.0000  0.0000  0.0000 </r>
        <r>  0.0076  0.0330  0.0013  0.0011  0.0000  0.0000  0.0000  0.0000  0.0000 </r>
        <r>  0.0050  0.0217  0.0009  0.0016  0.0000  0.0000  0.0000  0.0000  0.0000 </r>
       </set>
       <set comment="band 36">
        <r>  0.0050  0.0217  0.0009  0.0016  0.0000  0.0000  0.0000  0.0000  0.0000 </r>
        <r>  0.0076  0.0330  0.0013  0.0011  0.0000  0.0000  0.0000  0.0000  0.0000 </r>
        <r>  0.0052  0.0214  0.0019  0.0024  0.0000  0.0000  0.0000  0.0000  0.0000 </r>
        <r>  0.0079  0.0325  0.0028  0.0016  0.0000  0.0000  0.0000  0.0000  0.0000 </r>
        <r>  0.0016  0.0044  0.0022  0.0006  0.0000  0.0000  0.0000  0.0000  0.0000 </r>
        <r>  0.0010  0.0029  0.0015  0.0009  0.0000  0.0000  0.0000  0.0000  0.0000 </r>
        <r>  0.0016  0.0044  0.0022  0.0006  0.0000  0.0000  0.0000  0.0000  0.0000 </r>
        <r>  0.0010  0.0029  0.0015  0.0009  0.0000  0.0000  0.0000  0.0000  0.0000 </r>
        <r>  0.0052  0.0214  0.0019  0.0024  0.0000  0.0000  0.0000  0.0000  0.0000 </r>
        <r>  0.0079  0.0325  0.0028  0.0016  0.0000  0.0000  0.0000  0.0000  0.0000 </r>
        <r>  0.0050  0.0217  0.0009  0.0016  0.0000  0.0000  0.0000  0.0000  0.0000 </r>
        <r>  0.0076  0.0330  0.0013  0.0011  0.0000  0.0000  0.0000  0.0000  0.0000 </r>
       </set>
       <set comment="band 37">
        <r>  0.0000  0.0000  0.0014  0.0012  0.0000  0.0000  0.0000  0.0000  0.0000 </r>
        <r>  0.0001  0.0001  0.0025  0.0007  0.0000  0.0000  0.0000  0.0000  0.0000 </r>
        <r>  0.0001  0.0001  0.0023  0.0012  0.0000  0.0000  0.0000  0.0000  0.0000 </r>
        <r>  0.0001  0.0001  0.0031  0.0007  0.0000  0.0000  0.0000  0.0000  0.0000 </r>
        <r>  0.0020  0.0011  0.0466  0.0440  0.0000  0.0000  0.0000  0.0000  0.0000 </r>
        <r>  0.0041  0.0023  0.0972  0.0210  0.0000  0.0000  0.0000  0.0000  0.0000 </r>
        <r>  0.0020  0.0011  0.0468  0.0440  0.0000  0.0000  0.0000  0.0000  0.0000 </r>
        <r>  0.0042  0.0022  0.0987  0.0210  0.0000  0.0000  0.0000  0.0000  0.0000 </r>
        <r>  0.0000  0.0003  0.0002  0.0005  0.0000  0.0000  0.0000  0.0000  0.0000 </r>
        <r>  0.0000  0.0001  0.0013  0.0002  0.0000  0.0000  0.0000  0.0000  0.0000 </r>
        <r>  0.0001  0.0002  0.0004  0.0005  0.0000  0.0000  0.0000  0.0000  0.0000 </r>
        <r>  0.0000  0.0000  0.0010  0.0002  0.0000  0.0000  0.0000  0.0000  0.0000 </r>
       </set>
       <set comment="band 38">
        <r>  0.0011  0.0007  0.0238  0.0046  0.0000  0.0000  0.0000  0.0000  0.0000 </r>
        <r>  0.0004  0.0002  0.0098  0.0111  0.0000  0.0000  0.0000  0.0000  0.0000 </r>
        <r>  0.0012  0.0006  0.0268  0.0048  0.0000  0.0000  0.0000  0.0000  0.0000 </r>
        <r>  0.0005  0.0002  0.0118  0.0117  0.0000  0.0000  0.0000  0.0000  0.0000 </r>
        <r>  0.0028  0.0017  0.0652  0.0140  0.0000  0.0000  0.0000  0.0000  0.0000 </r>
        <r>  0.0015  0.0011  0.0316  0.0298  0.0000  0.0000  0.0000  0.0000  0.0000 </r>
        <r>  0.0029  0.0017  0.0667  0.0140  0.0000  0.0000  0.0000  0.0000  0.0000 </r>
        <r>  0.0014  0.0012  0.0300  0.0298  0.0000  0.0000  0.0000  0.0000  0.0000 </r>
        <r>  0.0008  0.0001  0.0184  0.0002  0.0000  0.0000  0.0000  0.0000  0.0000 </r>
        <r>  0.0000  0.0002  0.0004  0.0076  0.0000  0.0000  0.0000  0.0000  0.0000 </r>
        <r>  0.0006  0.0003  0.0154  0.0002  0.0000  0.0000  0.0000  0.0000  0.0000 </r>
        <r>  0.0000  0.0001  0.0004  0.0072  0.0000  0.0000  0.0000  0.0000  0.0000 </r>
       </set>
       <set comment="band 39">
        <r>  0.0001  0.0001  0.0029  0.0122  0.0000  0.0000  0.0000  0.0000  0.0000 </r>
        <r>  0.0014  0.0012  0.0273  0.0013  0.0000  0.0000  0.0000  0.0000  0.0000 </r>
        <r>  0.0001  0.0001  0.0032  0.0131  0.0000  0.0000  0.0000  0.0000  0.0000 </r>
        <r>  0.0016  0.0009  0.0276  0.0014  0.0000  0.0000  0.0000  0.0000  0.0000 </r>
        <r>  0.0000  0.0000  0.0001  0.0000  0.0000  0.0000  0.0000  0.0000  0.0000 </r>
        <r>  0.0000  0.0000  0.0000  0.0000  0.0000  0.0000  0.0000  0.0000  0.0000 </r>
        <r>  0.0000  0.0001  0.0002  0.0000  0.0000  0.0000  0.0000  0.0000  0.0000 </r>
        <r>  0.0000  0.0000  0.0000  0.0000  0.0000  0.0000  0.0000  0.0000  0.0000 </r>
        <r>  0.0004  0.0002  0.0092  0.0509  0.0000  0.0000  0.0000  0.0000  0.0000 </r>
        <r>  0.0054  0.0029  0.1129  0.0041  0.0000  0.0000  0.0000  0.0000  0.0000 </r>
        <r>  0.0004  0.0003  0.0084  0.0480  0.0000  0.0000  0.0000  0.0000  0.0000 </r>
        <r>  0.0049  0.0034  0.1044  0.0039  0.0000  0.0000  0.0000  0.0000  0.0000 </r>
       </set>
       <set comment="band 40">
        <r>  0.0018  0.0011  0.0387  0.0090  0.0000  0.0000  0.0000  0.0000  0.0000 </r>
        <r>  0.0009  0.0005  0.0192  0.0181  0.0000  0.0000  0.0000  0.0000  0.0000 </r>
        <r>  0.0019  0.0010  0.0434  0.0095  0.0000  0.0000  0.0000  0.0000  0.0000 </r>
        <r>  0.0009  0.0005  0.0218  0.0190  0.0000  0.0000  0.0000  0.0000  0.0000 </r>
        <r>  0.0000  0.0001  0.0001  0.0000  0.0000  0.0000  0.0000  0.0000  0.0000 </r>
        <r>  0.0000  0.0002  0.0001  0.0000  0.0000  0.0000  0.0000  0.0000  0.0000 </r>
        <r>  0.0000  0.0001  0.0001  0.0000  0.0000  0.0000  0.0000  0.0000  0.0000 </r>
        <r>  0.0000  0.0003  0.0002  0.0000  0.0000  0.0000  0.0000  0.0000  0.0000 </r>
        <r>  0.0037  0.0020  0.0841  0.0037  0.0000  0.0000  0.0000  0.0000  0.0000 </r>
        <r>  0.0003  0.0002  0.0089  0.0371  0.0000  0.0000  0.0000  0.0000  0.0000 </r>
        <r>  0.0035  0.0022  0.0755  0.0036  0.0000  0.0000  0.0000  0.0000  0.0000 </r>
        <r>  0.0003  0.0002  0.0075  0.0352  0.0000  0.0000  0.0000  0.0000  0.0000 </r>
       </set>
      </set>
     </set>
    </set>
   </array>
  </projected>
 </calculation>
 <structure name="finalpos" >
  <crystal>
   <varray name="basis" >
    <v>       3.34288600       0.00000000       0.00000000 </v>
    <v>       0.00000000      32.60240900       0.00000000 </v>
    <v>       0.00000000       0.00000000       4.37483100 </v>
   </varray>
   <i name="volume">    476.79592902 </i>
   <varray name="rec_basis" >
    <v>       0.29914272       0.00000000       0.00000000 </v>
    <v>       0.00000000       0.03067258       0.00000000 </v>
    <v>       0.00000000       0.00000000       0.22858026 </v>
   </varray>
  </crystal>
  <varray name="positions" >
   <v>       0.00000000       0.30672600       0.91892400 </v>
   <v>       0.50000000       0.30672600       0.58107600 </v>
   <v>       0.00000000       0.37246700       0.08107600 </v>
   <v>       0.50000000       0.37246700       0.41892400 </v>
   <v>       0.50000000       0.46712900       0.91892400 </v>
   <v>       0.00000000       0.46712900       0.58107600 </v>
   <v>       0.50000000       0.53287100       0.08107600 </v>
   <v>       0.00000000       0.53287100       0.41892400 </v>
   <v>       0.00000000       0.62753300       0.91892400 </v>
   <v>       0.50000000       0.62753300       0.58107600 </v>
   <v>       0.00000000       0.69327400       0.08107600 </v>
   <v>       0.50000000       0.69327400       0.41892400 </v>
  </varray>
 </structure>
</modeling>
