  12  12   1   0
  0.3973299E+02  0.3342886E-09  0.3260241E-08  0.4374831E-09  0.5000000E-15
  1.000000000000000E-004
  CAR 
 Generic Input                           
      5.85571849    -15.84336288 2000      0.94004046      1.00000000
    -15.843  0.0000E+00  0.0000E+00
    -15.833  0.0000E+00  0.0000E+00
    -15.822  0.0000E+00  0.0000E+00
    -15.811  0.0000E+00  0.0000E+00
    -15.800  0.0000E+00  0.0000E+00
    -15.789  0.0000E+00  0.0000E+00
    -15.778  0.0000E+00  0.0000E+00
    -15.767  0.0000E+00  0.0000E+00
    -15.757  0.0000E+00  0.0000E+00
    -15.746  0.0000E+00  0.0000E+00
    -15.735  0.0000E+00  0.0000E+00
    -15.724  0.0000E+00  0.0000E+00
    -15.713  0.0000E+00  0.0000E+00
    -15.702  0.0000E+00  0.0000E+00
    -15.691  0.0000E+00  0.0000E+00
    -15.681  0.0000E+00  0.0000E+00
    -15.670  0.0000E+00  0.0000E+00
    -15.659  0.0000E+00  0.0000E+00
    -15.648  0.0000E+00  0.0000E+00
    -15.637  0.0000E+00  0.0000E+00
    -15.626  0.0000E+00  0.0000E+00
    -15.615  0.0000E+00  0.0000E+00
    -15.605  0.0000E+00  0.0000E+00
    -15.594  0.0000E+00  0.0000E+00
    -15.583  0.0000E+00  0.0000E+00
    -15.572  0.0000E+00  0.0000E+00
    -15.561  0.0000E+00  0.0000E+00
    -15.550  0.0000E+00  0.0000E+00
    -15.539  0.0000E+00  0.0000E+00
    -15.529  0.0000E+00  0.0000E+00
    -15.518  0.0000E+00  0.0000E+00
    -15.507  0.0000E+00  0.0000E+00
    -15.496  0.0000E+00  0.0000E+00
    -15.485  0.0000E+00  0.0000E+00
    -15.474  0.0000E+00  0.0000E+00
    -15.463  0.0000E+00  0.0000E+00
    -15.453  0.0000E+00  0.0000E+00
    -15.442  0.0000E+00  0.0000E+00
    -15.431  0.0000E+00  0.0000E+00
    -15.420  0.0000E+00  0.0000E+00
    -15.409  0.0000E+00  0.0000E+00
    -15.398  0.0000E+00  0.0000E+00
    -15.387  0.0000E+00  0.0000E+00
    -15.377  0.0000E+00  0.0000E+00
    -15.366  0.0000E+00  0.0000E+00
    -15.355  0.0000E+00  0.0000E+00
    -15.344  0.0000E+00  0.0000E+00
    -15.333  0.0000E+00  0.0000E+00
    -15.322  0.0000E+00  0.0000E+00
    -15.311  0.0000E+00  0.0000E+00
    -15.301  0.0000E+00  0.0000E+00
    -15.290  0.0000E+00  0.0000E+00
    -15.279  0.0000E+00  0.0000E+00
    -15.268  0.0000E+00  0.0000E+00
    -15.257  0.0000E+00  0.0000E+00
    -15.246  0.0000E+00  0.0000E+00
    -15.235  0.0000E+00  0.0000E+00
    -15.225  0.0000E+00  0.0000E+00
    -15.214  0.0000E+00  0.0000E+00
    -15.203  0.0000E+00  0.0000E+00
    -15.192  0.0000E+00  0.0000E+00
    -15.181  0.0000E+00  0.0000E+00
    -15.170  0.0000E+00  0.0000E+00
    -15.159  0.0000E+00  0.0000E+00
    -15.149  0.0000E+00  0.0000E+00
    -15.138  0.0000E+00  0.0000E+00
    -15.127  0.0000E+00  0.0000E+00
    -15.116  0.0000E+00  0.0000E+00
    -15.105  0.0000E+00  0.0000E+00
    -15.094  0.0000E+00  0.0000E+00
    -15.084  0.0000E+00  0.0000E+00
    -15.073  0.0000E+00  0.0000E+00
    -15.062  0.0000E+00  0.0000E+00
    -15.051  0.0000E+00  0.0000E+00
    -15.040  0.0000E+00  0.0000E+00
    -15.029  0.0000E+00  0.0000E+00
    -15.018  0.0000E+00  0.0000E+00
    -15.008  0.0000E+00  0.0000E+00
    -14.997  0.0000E+00  0.0000E+00
    -14.986  0.0000E+00  0.0000E+00
    -14.975  0.0000E+00  0.0000E+00
    -14.964  0.0000E+00  0.0000E+00
    -14.953  0.0000E+00  0.0000E+00
    -14.942  0.0000E+00  0.0000E+00
    -14.932  0.0000E+00  0.0000E+00
    -14.921  0.0000E+00  0.0000E+00
    -14.910  0.3166E-12  0.3437E-14
    -14.899  0.1155E-07  0.1253E-09
    -14.888  0.4231E-04  0.4594E-06
    -14.877  0.1617E-01  0.1760E-03
    -14.866  0.6936E+00  0.7705E-02
    -14.856  0.3765E+01  0.4858E-01
    -14.845  0.2891E+01  0.7996E-01
    -14.834  0.3072E+00  0.8329E-01
    -14.823  0.3985E-02  0.8333E-01
    -14.812  0.5658E-05  0.8333E-01
    -14.801  0.8274E-09  0.8333E-01
    -14.790  0.1432E-12  0.8333E-01
    -14.780  0.5687E-08  0.8333E-01
    -14.769  0.2473E-04  0.8333E-01
    -14.758  0.1118E-01  0.8345E-01
    -14.747  0.5630E+00  0.8957E-01
    -14.736  0.3552E+01  0.1281E+00
    -14.725  0.3154E+01  0.1624E+00
    -14.714  0.3904E+00  0.1666E+00
    -14.704  0.5957E-02  0.1667E+00
    -14.693  0.1996E-02  0.1667E+00
    -14.682  0.2009E+00  0.1689E+00
    -14.671  0.2440E+01  0.1953E+00
    -14.660  0.4049E+01  0.2393E+00
    -14.649  0.9564E+00  0.2497E+00
    -14.638  0.2908E-01  0.2500E+00
    -14.628  0.1005E-03  0.2500E+00
    -14.617  0.3646E-07  0.2500E+00
    -14.606  0.1334E-11  0.2500E+00
    -14.595  0.0000E+00  0.2500E+00
    -14.584  0.6065E-11  0.2500E+00
    -14.573  0.1402E-06  0.2500E+00
    -14.562  0.3273E-03  0.2500E+00
    -14.552  0.8061E-01  0.2509E+00
    -14.541  0.2273E+01  0.2756E+00
    -14.530  0.8336E+01  0.3660E+00
    -14.519  0.4791E+01  0.4180E+00
    -14.508  0.5349E+01  0.4761E+00
    -14.497  0.8014E+01  0.5631E+00
    -14.486  0.1811E+01  0.5828E+00
    -14.476  0.5253E-01  0.5833E+00
    -14.465  0.1727E-03  0.5833E+00
    -14.454  0.2459E-06  0.5833E+00
    -14.443  0.4044E-03  0.5833E+00
    -14.432  0.9276E-01  0.5843E+00
    -14.421  0.2445E+01  0.6109E+00
    -14.411  0.8497E+01  0.7031E+00
    -14.400  0.6497E+01  0.7736E+00
    -14.389  0.8651E+01  0.8675E+00
    -14.378  0.4234E+01  0.9135E+00
    -14.367  0.3250E+00  0.9170E+00
    -14.356  0.1474E+01  0.9330E+00
    -14.345  0.8044E+01  0.1020E+01
    -14.335  0.1053E+02  0.1135E+01
    -14.324  0.8663E+01  0.1229E+01
    -14.313  0.1909E+01  0.1249E+01
    -14.302  0.5758E-01  0.1250E+01
    -14.291  0.1979E-03  0.1250E+01
    -14.280  0.7144E-07  0.1250E+01
    -14.269  0.2601E-11  0.1250E+01
    -14.259  0.0000E+00  0.1250E+01
    -14.248  0.0000E+00  0.1250E+01
    -14.237  0.2310E-10  0.1250E+01
    -14.226  0.4672E-06  0.1250E+01
    -14.215  0.9566E-03  0.1250E+01
    -14.204  0.2073E+00  0.1252E+01
    -14.193  0.5174E+01  0.1308E+01
    -14.183  0.1692E+02  0.1492E+01
    -14.172  0.7905E+01  0.1578E+01
    -14.161  0.4972E+00  0.1583E+01
    -14.150  0.3695E-02  0.1583E+01
    -14.139  0.2947E-05  0.1583E+01
    -14.128  0.2405E-09  0.1583E+01
    -14.117  0.3063E-07  0.1583E+01
    -14.107  0.1240E-03  0.1583E+01
    -14.096  0.5226E-01  0.1584E+01
    -14.085  0.2461E+01  0.1611E+01
    -14.074  0.1458E+02  0.1769E+01
    -14.063  0.1218E+02  0.1901E+01
    -14.052  0.1415E+01  0.1916E+01
    -14.041  0.2363E-01  0.1917E+01
    -14.031  0.4772E+00  0.1922E+01
    -14.020  0.7757E+01  0.2006E+01
    -14.009  0.1696E+02  0.2190E+01
    -13.998  0.5296E+01  0.2248E+01
    -13.987  0.2170E+00  0.2250E+01
    -13.976  0.1026E-02  0.2250E+01
    -13.965  0.5134E-06  0.2250E+01
    -13.955  0.2602E-10  0.2250E+01
    -13.944  0.0000E+00  0.2250E+01
    -13.933  0.0000E+00  0.2250E+01
    -13.922  0.0000E+00  0.2250E+01
    -13.911  0.0000E+00  0.2250E+01
    -13.900  0.0000E+00  0.2250E+01
    -13.889  0.0000E+00  0.2250E+01
    -13.879  0.0000E+00  0.2250E+01
    -13.868  0.0000E+00  0.2250E+01
    -13.857  0.0000E+00  0.2250E+01
    -13.846  0.0000E+00  0.2250E+01
    -13.835  0.0000E+00  0.2250E+01
    -13.824  0.0000E+00  0.2250E+01
    -13.813  0.0000E+00  0.2250E+01
    -13.803  0.0000E+00  0.2250E+01
    -13.792  0.0000E+00  0.2250E+01
    -13.781  0.0000E+00  0.2250E+01
    -13.770  0.0000E+00  0.2250E+01
    -13.759  0.0000E+00  0.2250E+01
    -13.748  0.0000E+00  0.2250E+01
    -13.737  0.0000E+00  0.2250E+01
    -13.727  0.0000E+00  0.2250E+01
    -13.716  0.0000E+00  0.2250E+01
    -13.705  0.0000E+00  0.2250E+01
    -13.694  0.0000E+00  0.2250E+01
    -13.683  0.0000E+00  0.2250E+01
    -13.672  0.0000E+00  0.2250E+01
    -13.662  0.0000E+00  0.2250E+01
    -13.651  0.0000E+00  0.2250E+01
    -13.640  0.0000E+00  0.2250E+01
    -13.629  0.4896E-10  0.2250E+01
    -13.618  0.7301E-06  0.2250E+01
    -13.607  0.1107E-02  0.2250E+01
    -13.596  0.1791E+00  0.2252E+01
    -13.586  0.3390E+01  0.2289E+01
    -13.575  0.8554E+01  0.2382E+01
    -13.564  0.3388E+01  0.2418E+01
    -13.553  0.4474E+01  0.2467E+01
    -13.542  0.8344E+01  0.2558E+01
    -13.531  0.2295E+01  0.2582E+01
    -13.520  0.8214E-01  0.2583E+01
    -13.510  0.5043E-03  0.2583E+01
    -13.499  0.5150E-01  0.2584E+01
    -13.488  0.1803E+01  0.2603E+01
    -13.477  0.8769E+01  0.2699E+01
    -13.466  0.1137E+02  0.2822E+01
    -13.455  0.7573E+01  0.2904E+01
    -13.444  0.2000E+01  0.2926E+01
    -13.434  0.6550E+01  0.2997E+01
    -13.423  0.6937E+01  0.3072E+01
    -13.412  0.2403E+01  0.3098E+01
    -13.401  0.7536E+01  0.3180E+01
    -13.390  0.5800E+01  0.3243E+01
    -13.379  0.6197E+00  0.3250E+01
    -13.368  0.8083E-02  0.3250E+01
    -13.358  0.1154E-04  0.3250E+01
    -13.347  0.1698E-08  0.3250E+01
    -13.336  0.2386E-13  0.3250E+01
    -13.325  0.0000E+00  0.3250E+01
    -13.314  0.1705E-14  0.3250E+01
    -13.303  0.2466E-09  0.3250E+01
    -13.292  0.3013E-05  0.3250E+01
    -13.282  0.3755E-02  0.3250E+01
    -13.271  0.5038E+00  0.3256E+01
    -13.260  0.8221E+01  0.3345E+01
    -13.249  0.2292E+02  0.3594E+01
    -13.238  0.2223E+02  0.3835E+01
    -13.227  0.7149E+01  0.3913E+01
    -13.216  0.3775E+00  0.3917E+01
    -13.206  0.2488E-02  0.3917E+01
    -13.195  0.4353E-01  0.3917E+01
    -13.184  0.2217E+01  0.3941E+01
    -13.173  0.1415E+02  0.4095E+01
    -13.162  0.1350E+02  0.4241E+01
    -13.151  0.1138E+02  0.4365E+01
    -13.140  0.1751E+02  0.4555E+01
    -13.130  0.1562E+02  0.4725E+01
    -13.119  0.1500E+02  0.4887E+01
    -13.108  0.3339E+01  0.4924E+01
    -13.097  0.9212E+01  0.5024E+01
    -13.086  0.1649E+02  0.5203E+01
    -13.075  0.4232E+01  0.5248E+01
    -13.064  0.1407E+00  0.5250E+01
    -13.054  0.5336E-03  0.5250E+01
    -13.043  0.2131E-06  0.5250E+01
    -13.032  0.8591E-11  0.5250E+01
    -13.021  0.0000E+00  0.5250E+01
    -13.010  0.0000E+00  0.5250E+01
    -12.999  0.0000E+00  0.5250E+01
    -12.989  0.0000E+00  0.5250E+01
    -12.978  0.0000E+00  0.5250E+01
    -12.967  0.0000E+00  0.5250E+01
    -12.956  0.0000E+00  0.5250E+01
    -12.945  0.0000E+00  0.5250E+01
    -12.934  0.0000E+00  0.5250E+01
    -12.923  0.0000E+00  0.5250E+01
    -12.913  0.0000E+00  0.5250E+01
    -12.902  0.0000E+00  0.5250E+01
    -12.891  0.0000E+00  0.5250E+01
    -12.880  0.0000E+00  0.5250E+01
    -12.869  0.0000E+00  0.5250E+01
    -12.858  0.0000E+00  0.5250E+01
    -12.847  0.0000E+00  0.5250E+01
    -12.837  0.0000E+00  0.5250E+01
    -12.826  0.0000E+00  0.5250E+01
    -12.815  0.0000E+00  0.5250E+01
    -12.804  0.0000E+00  0.5250E+01
    -12.793  0.0000E+00  0.5250E+01
    -12.782  0.0000E+00  0.5250E+01
    -12.771  0.0000E+00  0.5250E+01
    -12.761  0.0000E+00  0.5250E+01
    -12.750  0.0000E+00  0.5250E+01
    -12.739  0.0000E+00  0.5250E+01
    -12.728  0.0000E+00  0.5250E+01
    -12.717  0.0000E+00  0.5250E+01
    -12.706  0.0000E+00  0.5250E+01
    -12.695  0.0000E+00  0.5250E+01
    -12.685  0.0000E+00  0.5250E+01
    -12.674  0.0000E+00  0.5250E+01
    -12.663  0.0000E+00  0.5250E+01
    -12.652  0.2276E-12  0.5250E+01
    -12.641  0.1015E-07  0.5250E+01
    -12.630  0.4535E-04  0.5250E+01
    -12.619  0.2106E-01  0.5250E+01
    -12.609  0.1088E+01  0.5262E+01
    -12.598  0.7031E+01  0.5338E+01
    -12.587  0.6390E+01  0.5408E+01
    -12.576  0.8103E+00  0.5417E+01
    -12.565  0.1269E-01  0.5417E+01
    -12.554  0.2190E-04  0.5417E+01
    -12.543  0.3909E-08  0.5417E+01
    -12.533  0.6989E-13  0.5417E+01
    -12.522  0.4262E-14  0.5417E+01
    -12.511  0.3966E-09  0.5417E+01
    -12.500  0.3746E-05  0.5417E+01
    -12.489  0.3624E-02  0.5417E+01
    -12.478  0.3796E+00  0.5421E+01
    -12.467  0.4764E+01  0.5473E+01
    -12.457  0.8156E+01  0.5561E+01
    -12.446  0.1988E+01  0.5583E+01
    -12.435  0.6264E-01  0.5583E+01
    -12.424  0.3392E-01  0.5584E+01
    -12.413  0.1420E+01  0.5599E+01
    -12.402  0.7810E+01  0.5684E+01
    -12.391  0.1132E+02  0.5807E+01
    -12.381  0.1932E+02  0.6017E+01
    -12.370  0.1179E+02  0.6145E+01
    -12.359  0.1965E+01  0.6166E+01
    -12.348  0.7489E-01  0.6167E+01
    -12.337  0.8967E-01  0.6168E+01
    -12.326  0.3315E+01  0.6204E+01
    -12.315  0.1572E+02  0.6374E+01
    -12.305  0.1061E+02  0.6490E+01
    -12.294  0.2905E+01  0.6521E+01
    -12.283  0.1936E+02  0.6731E+01
    -12.272  0.3128E+02  0.7071E+01
    -12.261  0.8483E+01  0.7163E+01
    -12.250  0.3468E+00  0.7167E+01
    -12.240  0.1803E-02  0.7167E+01
    -12.229  0.1046E-05  0.7167E+01
    -12.218  0.6287E-10  0.7167E+01
    -12.207  0.3375E-12  0.7167E+01
    -12.196  0.1596E-07  0.7167E+01
    -12.185  0.7554E-04  0.7167E+01
    -12.174  0.3710E-01  0.7167E+01
    -12.164  0.2023E+01  0.7189E+01
    -12.153  0.1376E+02  0.7338E+01
    -12.142  0.1346E+02  0.7484E+01
    -12.131  0.4771E+01  0.7536E+01
    -12.120  0.3706E+01  0.7577E+01
    -12.109  0.1694E+01  0.7595E+01
    -12.098  0.1096E+02  0.7714E+01
    -12.088  0.1558E+02  0.7883E+01
    -12.077  0.5498E+01  0.7943E+01
    -12.066  0.8468E+01  0.8035E+01
    -12.055  0.4367E+01  0.8082E+01
    -12.044  0.3560E+01  0.8121E+01
    -12.033  0.8558E+01  0.8214E+01
    -12.022  0.3196E+01  0.8248E+01
    -12.012  0.1585E+00  0.8250E+01
    -12.001  0.9187E-03  0.8250E+01
    -11.990  0.2978E-02  0.8250E+01
    -11.979  0.3360E+00  0.8254E+01
    -11.968  0.4563E+01  0.8303E+01
    -11.957  0.9444E+01  0.8406E+01
    -11.946  0.6341E+01  0.8475E+01
    -11.936  0.2205E+01  0.8498E+01
    -11.925  0.7661E+00  0.8507E+01
    -11.914  0.5802E+01  0.8570E+01
    -11.903  0.7516E+01  0.8651E+01
    -11.892  0.1377E+01  0.8666E+01
    -11.881  0.3924E-01  0.8667E+01
    -11.870  0.7638E+00  0.8675E+01
    -11.860  0.9552E+01  0.8779E+01
    -11.849  0.1630E+02  0.8956E+01
    -11.838  0.3961E+01  0.8999E+01
    -11.827  0.1242E+00  0.9000E+01
    -11.816  0.1728E-01  0.9000E+01
    -11.805  0.9563E+00  0.9011E+01
    -11.794  0.6754E+01  0.9084E+01
    -11.784  0.6801E+01  0.9158E+01
    -11.773  0.4751E+01  0.9209E+01
    -11.762  0.1621E+02  0.9385E+01
    -11.751  0.9768E+01  0.9491E+01
    -11.740  0.1619E+01  0.9509E+01
    -11.729  0.9826E+01  0.9616E+01
    -11.718  0.1617E+02  0.9791E+01
    -11.708  0.3787E+01  0.9832E+01
    -11.697  0.1142E+00  0.9833E+01
    -11.686  0.3908E-03  0.9833E+01
    -11.675  0.1405E-06  0.9833E+01
    -11.664  0.7188E-10  0.9833E+01
    -11.653  0.9317E-06  0.9833E+01
    -11.642  0.1323E-02  0.9833E+01
    -11.632  0.2009E+00  0.9836E+01
    -11.621  0.3580E+01  0.9874E+01
    -11.610  0.8533E+01  0.9967E+01
    -11.599  0.2908E+01  0.9999E+01
    -11.588  0.1714E+00  0.1000E+02
    -11.577  0.1576E+01  0.1002E+02
    -11.567  0.7772E+01  0.1010E+02
    -11.556  0.5436E+01  0.1016E+02
    -11.545  0.5239E+00  0.1017E+02
    -11.534  0.4560E-01  0.1017E+02
    -11.523  0.2096E+01  0.1019E+02
    -11.512  0.1390E+02  0.1034E+02
    -11.501  0.1296E+02  0.1048E+02
    -11.491  0.1687E+01  0.1050E+02
    -11.480  0.2718E-01  0.1050E+02
    -11.469  0.3979E-03  0.1050E+02
    -11.458  0.1059E+00  0.1050E+02
    -11.447  0.3637E+01  0.1054E+02
    -11.436  0.1604E+02  0.1071E+02
    -11.425  0.1006E+02  0.1082E+02
    -11.415  0.8635E+00  0.1083E+02
    -11.404  0.8928E-02  0.1083E+02
    -11.393  0.1002E-04  0.1083E+02
    -11.382  0.3143E-08  0.1083E+02
    -11.371  0.1528E-04  0.1083E+02
    -11.360  0.1206E-01  0.1083E+02
    -11.349  0.1038E+01  0.1084E+02
    -11.339  0.1083E+02  0.1096E+02
    -11.328  0.1558E+02  0.1113E+02
    -11.317  0.4101E+01  0.1118E+02
    -11.306  0.1044E+02  0.1129E+02
    -11.295  0.1586E+02  0.1146E+02
    -11.284  0.3452E+01  0.1150E+02
    -11.273  0.9618E-01  0.1150E+02
    -11.263  0.3031E-03  0.1150E+02
    -11.252  0.1001E-06  0.1150E+02
    -11.241  0.3327E-11  0.1150E+02
    -11.230  0.0000E+00  0.1150E+02
    -11.219  0.0000E+00  0.1150E+02
    -11.208  0.0000E+00  0.1150E+02
    -11.197  0.0000E+00  0.1150E+02
    -11.187  0.0000E+00  0.1150E+02
    -11.176  0.0000E+00  0.1150E+02
    -11.165  0.0000E+00  0.1150E+02
    -11.154  0.0000E+00  0.1150E+02
    -11.143  0.0000E+00  0.1150E+02
    -11.132  0.0000E+00  0.1150E+02
    -11.121  0.0000E+00  0.1150E+02
    -11.111  0.0000E+00  0.1150E+02
    -11.100  0.0000E+00  0.1150E+02
    -11.089  0.1702E-11  0.1150E+02
    -11.078  0.5094E-07  0.1150E+02
    -11.067  0.1536E-03  0.1150E+02
    -11.056  0.4852E-01  0.1150E+02
    -11.045  0.1735E+01  0.1152E+02
    -11.035  0.7940E+01  0.1161E+02
    -11.024  0.5164E+01  0.1166E+02
    -11.013  0.4610E+00  0.1167E+02
    -11.002  0.4966E-02  0.1167E+02
    -10.991  0.5815E-05  0.1167E+02
    -10.980  0.6990E-09  0.1167E+02
    -10.969  0.8523E-14  0.1167E+02
    -10.959  0.0000E+00  0.1167E+02
    -10.948  0.0000E+00  0.1167E+02
    -10.937  0.0000E+00  0.1167E+02
    -10.926  0.0000E+00  0.1167E+02
    -10.915  0.0000E+00  0.1167E+02
    -10.904  0.0000E+00  0.1167E+02
    -10.893  0.0000E+00  0.1167E+02
    -10.883  0.0000E+00  0.1167E+02
    -10.872  0.0000E+00  0.1167E+02
    -10.861  0.0000E+00  0.1167E+02
    -10.850  0.7739E-12  0.1167E+02
    -10.839  0.2713E-07  0.1167E+02
    -10.828  0.9555E-04  0.1167E+02
    -10.818  0.3515E-01  0.1167E+02
    -10.807  0.1453E+01  0.1168E+02
    -10.796  0.7620E+01  0.1177E+02
    -10.785  0.5658E+01  0.1183E+02
    -10.774  0.5806E+00  0.1183E+02
    -10.763  0.7254E-02  0.1183E+02
    -10.752  0.9907E-05  0.1183E+02
    -10.742  0.1393E-08  0.1183E+02
    -10.731  0.2046E-13  0.1183E+02
    -10.720  0.0000E+00  0.1183E+02
    -10.709  0.0000E+00  0.1183E+02
    -10.698  0.0000E+00  0.1183E+02
    -10.687  0.0000E+00  0.1183E+02
    -10.676  0.2284E-12  0.1183E+02
    -10.666  0.1018E-07  0.1183E+02
    -10.655  0.4548E-04  0.1183E+02
    -10.644  0.2110E-01  0.1183E+02
    -10.633  0.1089E+01  0.1185E+02
    -10.622  0.7034E+01  0.1192E+02
    -10.611  0.6388E+01  0.1199E+02
    -10.600  0.8093E+00  0.1200E+02
    -10.590  0.1266E-01  0.1200E+02
    -10.579  0.2183E-04  0.1200E+02
    -10.568  0.3894E-08  0.1200E+02
    -10.557  0.6819E-13  0.1200E+02
    -10.546  0.0000E+00  0.1200E+02
    -10.535  0.0000E+00  0.1200E+02
    -10.524  0.0000E+00  0.1200E+02
    -10.514  0.0000E+00  0.1200E+02
    -10.503  0.0000E+00  0.1200E+02
    -10.492  0.0000E+00  0.1200E+02
    -10.481  0.0000E+00  0.1200E+02
    -10.470  0.0000E+00  0.1200E+02
    -10.459  0.0000E+00  0.1200E+02
    -10.448  0.0000E+00  0.1200E+02
    -10.438  0.0000E+00  0.1200E+02
    -10.427  0.0000E+00  0.1200E+02
    -10.416  0.0000E+00  0.1200E+02
    -10.405  0.0000E+00  0.1200E+02
    -10.394  0.0000E+00  0.1200E+02
    -10.383  0.0000E+00  0.1200E+02
    -10.372  0.0000E+00  0.1200E+02
    -10.362  0.0000E+00  0.1200E+02
    -10.351  0.0000E+00  0.1200E+02
    -10.340  0.0000E+00  0.1200E+02
    -10.329  0.0000E+00  0.1200E+02
    -10.318  0.0000E+00  0.1200E+02
    -10.307  0.0000E+00  0.1200E+02
    -10.296  0.6196E-12  0.1200E+02
    -10.286  0.2270E-07  0.1200E+02
    -10.275  0.8352E-04  0.1200E+02
    -10.264  0.3206E-01  0.1200E+02
    -10.253  0.1380E+01  0.1202E+02
    -10.242  0.7521E+01  0.1210E+02
    -10.231  0.5795E+01  0.1216E+02
    -10.220  0.6182E+00  0.1217E+02
    -10.210  0.8050E-02  0.1217E+02
    -10.199  0.2077E-04  0.1217E+02
    -10.188  0.6934E-02  0.1217E+02
    -10.177  0.5650E+00  0.1217E+02
    -10.166  0.5600E+01  0.1223E+02
    -10.155  0.7848E+01  0.1232E+02
    -10.145  0.4941E+01  0.1237E+02
    -10.134  0.8583E+01  0.1247E+02
    -10.123  0.3022E+01  0.1250E+02
    -10.112  0.1413E+00  0.1250E+02
    -10.101  0.7676E-03  0.1250E+02
    -10.090  0.4434E-06  0.1250E+02
    -10.079  0.2599E-10  0.1250E+02
    -10.069  0.0000E+00  0.1250E+02
    -10.058  0.0000E+00  0.1250E+02
    -10.047  0.0000E+00  0.1250E+02
    -10.036  0.0000E+00  0.1250E+02
    -10.025  0.0000E+00  0.1250E+02
    -10.014  0.0000E+00  0.1250E+02
    -10.003  0.0000E+00  0.1250E+02
     -9.993  0.0000E+00  0.1250E+02
     -9.982  0.0000E+00  0.1250E+02
     -9.971  0.0000E+00  0.1250E+02
     -9.960  0.0000E+00  0.1250E+02
     -9.949  0.0000E+00  0.1250E+02
     -9.938  0.0000E+00  0.1250E+02
     -9.927  0.0000E+00  0.1250E+02
     -9.917  0.0000E+00  0.1250E+02
     -9.906  0.0000E+00  0.1250E+02
     -9.895  0.0000E+00  0.1250E+02
     -9.884  0.0000E+00  0.1250E+02
     -9.873  0.0000E+00  0.1250E+02
     -9.862  0.0000E+00  0.1250E+02
     -9.851  0.0000E+00  0.1250E+02
     -9.841  0.0000E+00  0.1250E+02
     -9.830  0.0000E+00  0.1250E+02
     -9.819  0.0000E+00  0.1250E+02
     -9.808  0.2727E-13  0.1250E+02
     -9.797  0.2083E-08  0.1250E+02
     -9.786  0.1583E-04  0.1250E+02
     -9.775  0.1237E-01  0.1250E+02
     -9.765  0.1054E+01  0.1251E+02
     -9.754  0.1090E+02  0.1263E+02
     -9.743  0.1553E+02  0.1280E+02
     -9.732  0.3136E+01  0.1283E+02
     -9.721  0.8067E-01  0.1283E+02
     -9.710  0.2339E-03  0.1283E+02
     -9.699  0.7093E-07  0.1283E+02
     -9.689  0.2161E-11  0.1283E+02
     -9.678  0.0000E+00  0.1283E+02
     -9.667  0.0000E+00  0.1283E+02
     -9.656  0.0000E+00  0.1283E+02
     -9.645  0.5881E-12  0.1283E+02
     -9.634  0.2491E-07  0.1283E+02
     -9.623  0.1060E-03  0.1283E+02
     -9.613  0.4691E-01  0.1283E+02
     -9.602  0.2314E+01  0.1286E+02
     -9.591  0.1432E+02  0.1301E+02
     -9.580  0.1249E+02  0.1315E+02
     -9.569  0.1516E+01  0.1317E+02
     -9.558  0.2383E-01  0.1317E+02
     -9.547  0.1872E+00  0.1317E+02
     -9.537  0.3462E+01  0.1321E+02
     -9.526  0.8546E+01  0.1330E+02
     -9.515  0.3016E+01  0.1333E+02
     -9.504  0.1705E+00  0.1333E+02
     -9.493  0.1785E+01  0.1335E+02
     -9.482  0.1377E+02  0.1350E+02
     -9.471  0.2205E+02  0.1374E+02
     -9.461  0.1872E+02  0.1395E+02
     -9.450  0.5101E+01  0.1400E+02
     -9.439  0.5613E+01  0.1406E+02
     -9.428  0.1699E+02  0.1425E+02
     -9.417  0.7802E+01  0.1433E+02
     -9.406  0.4040E+01  0.1437E+02
     -9.396  0.8536E+01  0.1447E+02
     -9.385  0.2905E+01  0.1450E+02
     -9.374  0.1305E+00  0.1450E+02
     -9.363  0.6795E-03  0.1450E+02
     -9.352  0.3757E-06  0.1450E+02
     -9.341  0.2107E-10  0.1450E+02
     -9.330  0.5796E-13  0.1450E+02
     -9.320  0.3872E-08  0.1450E+02
     -9.309  0.2554E-04  0.1450E+02
     -9.298  0.1736E-01  0.1450E+02
     -9.287  0.1294E+01  0.1451E+02
     -9.276  0.1179E+02  0.1464E+02
     -9.265  0.1489E+02  0.1480E+02
     -9.254  0.2658E+01  0.1483E+02
     -9.244  0.5993E-01  0.1483E+02
     -9.233  0.1513E-03  0.1483E+02
     -9.222  0.1012E-05  0.1483E+02
     -9.211  0.1643E-02  0.1483E+02
     -9.200  0.2962E+00  0.1484E+02
     -9.189  0.6335E+01  0.1491E+02
     -9.178  0.2032E+02  0.1513E+02
     -9.168  0.1533E+02  0.1529E+02
     -9.157  0.3613E+01  0.1533E+02
     -9.146  0.1669E+00  0.1533E+02
     -9.135  0.9731E-03  0.1533E+02
     -9.124  0.6112E-06  0.1533E+02
     -9.113  0.3905E-10  0.1533E+02
     -9.102  0.0000E+00  0.1533E+02
     -9.092  0.1032E-10  0.1533E+02
     -9.081  0.2466E-06  0.1533E+02
     -9.070  0.5950E-03  0.1533E+02
     -9.059  0.1513E+00  0.1533E+02
     -9.048  0.4397E+01  0.1538E+02
     -9.037  0.1658E+02  0.1556E+02
     -9.026  0.9005E+01  0.1566E+02
     -9.016  0.3913E+01  0.1570E+02
     -9.005  0.1567E+02  0.1587E+02
     -8.994  0.1068E+02  0.1599E+02
     -8.983  0.1001E+01  0.1600E+02
     -8.972  0.1137E-01  0.1600E+02
     -8.961  0.1406E-04  0.1600E+02
     -8.950  0.1804E-08  0.1600E+02
     -8.940  0.3237E-06  0.1600E+02
     -8.929  0.6089E-03  0.1600E+02
     -8.918  0.1219E+00  0.1600E+02
     -8.907  0.2931E+01  0.1603E+02
     -8.896  0.1255E+02  0.1617E+02
     -8.885  0.2005E+02  0.1639E+02
     -8.874  0.9660E+01  0.1649E+02
     -8.864  0.1161E+01  0.1650E+02
     -8.853  0.5481E+01  0.1656E+02
     -8.842  0.1521E+02  0.1673E+02
     -8.831  0.1776E+02  0.1692E+02
     -8.820  0.6717E+01  0.1699E+02
     -8.809  0.4733E+00  0.1700E+02
     -8.798  0.2004E-01  0.1700E+02
     -8.788  0.1208E+01  0.1701E+02
     -8.777  0.1149E+02  0.1714E+02
     -8.766  0.1512E+02  0.1730E+02
     -8.755  0.2815E+01  0.1733E+02
     -8.744  0.2057E+00  0.1733E+02
     -8.733  0.3001E+01  0.1737E+02
     -8.723  0.8544E+01  0.1746E+02
     -8.712  0.3478E+01  0.1750E+02
     -8.701  0.1890E+00  0.1750E+02
     -8.690  0.7032E-02  0.1750E+02
     -8.679  0.6627E+00  0.1751E+02
     -8.668  0.8987E+01  0.1760E+02
     -8.657  0.1656E+02  0.1778E+02
     -8.647  0.4349E+01  0.1783E+02
     -8.636  0.1485E+00  0.1783E+02
     -8.625  0.6705E-01  0.1783E+02
     -8.614  0.1466E+01  0.1785E+02
     -8.603  0.4268E+01  0.1790E+02
     -8.592  0.1807E+01  0.1792E+02
     -8.581  0.1437E+01  0.1793E+02
     -8.571  0.7460E+01  0.1801E+02
     -8.560  0.5876E+01  0.1808E+02
     -8.549  0.6433E+00  0.1808E+02
     -8.538  0.2083E+00  0.1809E+02
     -8.527  0.3756E+01  0.1813E+02
     -8.516  0.1635E+02  0.1830E+02
     -8.505  0.1595E+02  0.1848E+02
     -8.495  0.5603E+01  0.1854E+02
     -8.484  0.3621E+01  0.1858E+02
     -8.473  0.5723E+00  0.1858E+02
     -8.462  0.1159E-01  0.1858E+02
     -8.451  0.4617E-01  0.1858E+02
     -8.440  0.2933E+01  0.1862E+02
     -8.429  0.2415E+02  0.1888E+02
     -8.419  0.2901E+02  0.1919E+02
     -8.408  0.5160E+01  0.1925E+02
     -8.397  0.1219E+00  0.1925E+02
     -8.386  0.3388E-03  0.1925E+02
     -8.375  0.1020E-06  0.1925E+02
     -8.364  0.3171E-11  0.1925E+02
     -8.353  0.0000E+00  0.1925E+02
     -8.343  0.0000E+00  0.1925E+02
     -8.332  0.0000E+00  0.1925E+02
     -8.321  0.0000E+00  0.1925E+02
     -8.310  0.8523E-13  0.1925E+02
     -8.299  0.4586E-08  0.1925E+02
     -8.288  0.2475E-04  0.1925E+02
     -8.277  0.1382E-01  0.1925E+02
     -8.267  0.8521E+00  0.1926E+02
     -8.256  0.6501E+01  0.1933E+02
     -8.245  0.6930E+01  0.1941E+02
     -8.234  0.1038E+01  0.1942E+02
     -8.223  0.1939E-01  0.1942E+02
     -8.212  0.4026E-04  0.1942E+02
     -8.201  0.8675E-08  0.1942E+02
     -8.191  0.6631E-12  0.1942E+02
     -8.180  0.2102E-07  0.1942E+02
     -8.169  0.9319E-04  0.1942E+02
     -8.158  0.4291E-01  0.1942E+02
     -8.147  0.2199E+01  0.1944E+02
     -8.136  0.1411E+02  0.1959E+02
     -8.125  0.1273E+02  0.1973E+02
     -8.115  0.1602E+01  0.1975E+02
     -8.104  0.2488E-01  0.1975E+02
     -8.093  0.4259E-04  0.1975E+02
     -8.082  0.7539E-08  0.1975E+02
     -8.071  0.1330E-12  0.1975E+02
     -8.060  0.0000E+00  0.1975E+02
     -8.049  0.0000E+00  0.1975E+02
     -8.039  0.8523E-14  0.1975E+02
     -8.028  0.6841E-09  0.1975E+02
     -8.017  0.5719E-05  0.1975E+02
     -8.006  0.4907E-02  0.1975E+02
     -7.995  0.4576E+00  0.1976E+02
     -7.984  0.5149E+01  0.1981E+02
     -7.974  0.7950E+01  0.1990E+02
     -7.963  0.1744E+01  0.1992E+02
     -7.952  0.4900E-01  0.1992E+02
     -7.941  0.1558E-03  0.1992E+02
     -7.930  0.2943E-04  0.1992E+02
     -7.919  0.1916E-01  0.1992E+02
     -7.908  0.1372E+01  0.1993E+02
     -7.898  0.1205E+02  0.2006E+02
     -7.887  0.1469E+02  0.2022E+02
     -7.876  0.2527E+01  0.2025E+02
     -7.865  0.5478E-01  0.2025E+02
     -7.854  0.1328E-03  0.2025E+02
     -7.843  0.3352E-07  0.2025E+02
     -7.832  0.8489E-12  0.2025E+02
     -7.822  0.0000E+00  0.2025E+02
     -7.811  0.0000E+00  0.2025E+02
     -7.800  0.0000E+00  0.2025E+02
     -7.789  0.0000E+00  0.2025E+02
     -7.778  0.0000E+00  0.2025E+02
     -7.767  0.0000E+00  0.2025E+02
     -7.756  0.0000E+00  0.2025E+02
     -7.746  0.0000E+00  0.2025E+02
     -7.735  0.0000E+00  0.2025E+02
     -7.724  0.0000E+00  0.2025E+02
     -7.713  0.0000E+00  0.2025E+02
     -7.702  0.0000E+00  0.2025E+02
     -7.691  0.0000E+00  0.2025E+02
     -7.680  0.0000E+00  0.2025E+02
     -7.670  0.0000E+00  0.2025E+02
     -7.659  0.0000E+00  0.2025E+02
     -7.648  0.0000E+00  0.2025E+02
     -7.637  0.0000E+00  0.2025E+02
     -7.626  0.0000E+00  0.2025E+02
     -7.615  0.0000E+00  0.2025E+02
     -7.604  0.0000E+00  0.2025E+02
     -7.594  0.0000E+00  0.2025E+02
     -7.583  0.6819E-14  0.2025E+02
     -7.572  0.6454E-09  0.2025E+02
     -7.561  0.6383E-05  0.2025E+02
     -7.550  0.6460E-02  0.2025E+02
     -7.539  0.7066E+00  0.2026E+02
     -7.528  0.9240E+01  0.2036E+02
     -7.518  0.1645E+02  0.2054E+02
     -7.507  0.4171E+01  0.2058E+02
     -7.496  0.1369E+00  0.2058E+02
     -7.485  0.5122E-03  0.2058E+02
     -7.474  0.5371E-05  0.2058E+02
     -7.463  0.5549E-02  0.2058E+02
     -7.452  0.6426E+00  0.2059E+02
     -7.442  0.8877E+01  0.2069E+02
     -7.431  0.1754E+02  0.2088E+02
     -7.420  0.1483E+02  0.2104E+02
     -7.409  0.1600E+02  0.2121E+02
     -7.398  0.3431E+01  0.2125E+02
     -7.387  0.9509E-01  0.2125E+02
     -7.376  0.2981E-03  0.2125E+02
     -7.366  0.9789E-07  0.2125E+02
     -7.355  0.3239E-11  0.2125E+02
     -7.344  0.0000E+00  0.2125E+02
     -7.333  0.0000E+00  0.2125E+02
     -7.322  0.0000E+00  0.2125E+02
     -7.311  0.0000E+00  0.2125E+02
     -7.301  0.0000E+00  0.2125E+02
     -7.290  0.0000E+00  0.2125E+02
     -7.279  0.1364E-13  0.2125E+02
     -7.268  0.1055E-08  0.2125E+02
     -7.257  0.7998E-05  0.2125E+02
     -7.246  0.6232E-02  0.2125E+02
     -7.235  0.5295E+00  0.2126E+02
     -7.225  0.5459E+01  0.2132E+02
     -7.214  0.7756E+01  0.2140E+02
     -7.203  0.1562E+01  0.2142E+02
     -7.192  0.4009E-01  0.2142E+02
     -7.181  0.1159E-03  0.2142E+02
     -7.170  0.3504E-07  0.2142E+02
     -7.159  0.1065E-11  0.2142E+02
     -7.149  0.0000E+00  0.2142E+02
     -7.138  0.0000E+00  0.2142E+02
     -7.127  0.0000E+00  0.2142E+02
     -7.116  0.0000E+00  0.2142E+02
     -7.105  0.0000E+00  0.2142E+02
     -7.094  0.0000E+00  0.2142E+02
     -7.083  0.5114E-14  0.2142E+02
     -7.073  0.4843E-09  0.2142E+02
     -7.062  0.4375E-05  0.2142E+02
     -7.051  0.4051E-02  0.2142E+02
     -7.040  0.4067E+00  0.2142E+02
     -7.029  0.4904E+01  0.2147E+02
     -7.018  0.8085E+01  0.2156E+02
     -7.007  0.1897E+01  0.2158E+02
     -6.997  0.5726E-01  0.2158E+02
     -6.986  0.1963E-03  0.2158E+02
     -6.975  0.7067E-07  0.2158E+02
     -6.964  0.6242E-11  0.2158E+02
     -6.953  0.9415E-07  0.2158E+02
     -6.942  0.2433E-03  0.2158E+02
     -6.931  0.6613E-01  0.2158E+02
     -6.921  0.2048E+01  0.2161E+02
     -6.910  0.8215E+01  0.2170E+02
     -6.899  0.5640E+01  0.2176E+02
     -6.888  0.7137E+01  0.2183E+02