Generic Input                           
           1
     3.342886    0.000000    0.000000
     0.000000   32.602409    0.000000
     0.000000    0.000000    4.374831
   P 
  12
Direct configuration=     1
   0.00000000  0.30672600  0.91892400
   0.50000000  0.30672600  0.58107600
   0.00000000  0.37246700  0.08107600
   0.50000000  0.37246700  0.41892400
   0.50000000  0.46712900  0.41892400
   0.00000000  0.46712900  0.08107600
   0.50000000  0.53287100  0.58107600
   0.00000000  0.53287100  0.91892400
   0.00000000  0.62753300  0.91892400
   0.50000000  0.62753300  0.58107600
   0.00000000  0.69327400  0.08107600
   0.50000000  0.69327400  0.41892400
