  12  12   1   0
  0.3973299E+02  0.3342886E-09  0.3260241E-08  0.4374831E-09  0.5000000E-15
  1.000000000000000E-004
  CAR 
 Generic Input                           
      5.87893941    -15.94658463 2000      0.69312557      1.00000000
    -15.947  0.0000E+00  0.0000E+00
    -15.936  0.0000E+00  0.0000E+00
    -15.925  0.0000E+00  0.0000E+00
    -15.914  0.0000E+00  0.0000E+00
    -15.903  0.0000E+00  0.0000E+00
    -15.892  0.0000E+00  0.0000E+00
    -15.881  0.0000E+00  0.0000E+00
    -15.870  0.0000E+00  0.0000E+00
    -15.859  0.0000E+00  0.0000E+00
    -15.848  0.0000E+00  0.0000E+00
    -15.837  0.0000E+00  0.0000E+00
    -15.826  0.0000E+00  0.0000E+00
    -15.816  0.0000E+00  0.0000E+00
    -15.805  0.0000E+00  0.0000E+00
    -15.794  0.0000E+00  0.0000E+00
    -15.783  0.0000E+00  0.0000E+00
    -15.772  0.0000E+00  0.0000E+00
    -15.761  0.0000E+00  0.0000E+00
    -15.750  0.0000E+00  0.0000E+00
    -15.739  0.0000E+00  0.0000E+00
    -15.728  0.0000E+00  0.0000E+00
    -15.717  0.0000E+00  0.0000E+00
    -15.706  0.0000E+00  0.0000E+00
    -15.695  0.0000E+00  0.0000E+00
    -15.685  0.0000E+00  0.0000E+00
    -15.674  0.0000E+00  0.0000E+00
    -15.663  0.0000E+00  0.0000E+00
    -15.652  0.0000E+00  0.0000E+00
    -15.641  0.0000E+00  0.0000E+00
    -15.630  0.0000E+00  0.0000E+00
    -15.619  0.0000E+00  0.0000E+00
    -15.608  0.0000E+00  0.0000E+00
    -15.597  0.0000E+00  0.0000E+00
    -15.586  0.0000E+00  0.0000E+00
    -15.575  0.0000E+00  0.0000E+00
    -15.564  0.0000E+00  0.0000E+00
    -15.554  0.0000E+00  0.0000E+00
    -15.543  0.0000E+00  0.0000E+00
    -15.532  0.0000E+00  0.0000E+00
    -15.521  0.0000E+00  0.0000E+00
    -15.510  0.0000E+00  0.0000E+00
    -15.499  0.0000E+00  0.0000E+00
    -15.488  0.0000E+00  0.0000E+00
    -15.477  0.0000E+00  0.0000E+00
    -15.466  0.0000E+00  0.0000E+00
    -15.455  0.0000E+00  0.0000E+00
    -15.444  0.0000E+00  0.0000E+00
    -15.433  0.0000E+00  0.0000E+00
    -15.423  0.0000E+00  0.0000E+00
    -15.412  0.0000E+00  0.0000E+00
    -15.401  0.0000E+00  0.0000E+00
    -15.390  0.0000E+00  0.0000E+00
    -15.379  0.0000E+00  0.0000E+00
    -15.368  0.0000E+00  0.0000E+00
    -15.357  0.0000E+00  0.0000E+00
    -15.346  0.0000E+00  0.0000E+00
    -15.335  0.0000E+00  0.0000E+00
    -15.324  0.0000E+00  0.0000E+00
    -15.313  0.0000E+00  0.0000E+00
    -15.302  0.0000E+00  0.0000E+00
    -15.291  0.0000E+00  0.0000E+00
    -15.281  0.0000E+00  0.0000E+00
    -15.270  0.0000E+00  0.0000E+00
    -15.259  0.0000E+00  0.0000E+00
    -15.248  0.0000E+00  0.0000E+00
    -15.237  0.0000E+00  0.0000E+00
    -15.226  0.0000E+00  0.0000E+00
    -15.215  0.0000E+00  0.0000E+00
    -15.204  0.0000E+00  0.0000E+00
    -15.193  0.0000E+00  0.0000E+00
    -15.182  0.0000E+00  0.0000E+00
    -15.171  0.0000E+00  0.0000E+00
    -15.160  0.0000E+00  0.0000E+00
    -15.150  0.0000E+00  0.0000E+00
    -15.139  0.0000E+00  0.0000E+00
    -15.128  0.0000E+00  0.0000E+00
    -15.117  0.0000E+00  0.0000E+00
    -15.106  0.0000E+00  0.0000E+00
    -15.095  0.0000E+00  0.0000E+00
    -15.084  0.0000E+00  0.0000E+00
    -15.073  0.0000E+00  0.0000E+00
    -15.062  0.0000E+00  0.0000E+00
    -15.051  0.0000E+00  0.0000E+00
    -15.040  0.0000E+00  0.0000E+00
    -15.029  0.0000E+00  0.0000E+00
    -15.019  0.0000E+00  0.0000E+00
    -15.008  0.1129E-12  0.1233E-14
    -14.997  0.4647E-08  0.5074E-10
    -14.986  0.1869E-04  0.2041E-06
    -14.975  0.7628E-02  0.8349E-04
    -14.964  0.3403E+00  0.3799E-02
    -14.953  0.1878E+01  0.2431E-01
    -14.942  0.1439E+01  0.4001E-01
    -14.931  0.1495E+00  0.4165E-01
    -14.920  0.1851E-02  0.4167E-01
    -14.909  0.2443E-05  0.4167E-01
    -14.898  0.3231E-09  0.4167E-01
    -14.888  0.4237E-14  0.4167E-01
    -14.877  0.0000E+00  0.4167E-01
    -14.866  0.0000E+00  0.4167E-01
    -14.855  0.2433E-11  0.4167E-01
    -14.844  0.6190E-07  0.4167E-01
    -14.833  0.1549E-03  0.4167E-01
    -14.822  0.3979E-01  0.4210E-01
    -14.811  0.1142E+01  0.5457E-01
    -14.800  0.4175E+01  0.1001E+00
    -14.789  0.2413E+01  0.1265E+00
    -14.778  0.3233E+01  0.1618E+00
    -14.767  0.5972E+01  0.2270E+00
    -14.756  0.2006E+01  0.2489E+00
    -14.746  0.9954E-01  0.2500E+00
    -14.735  0.5975E-03  0.2500E+00
    -14.724  0.3885E-06  0.2500E+00
    -14.713  0.2659E-04  0.2500E+00
    -14.702  0.9701E-02  0.2501E+00
    -14.691  0.3888E+00  0.2544E+00
    -14.680  0.1941E+01  0.2755E+00
    -14.669  0.1349E+01  0.2903E+00
    -14.658  0.1265E+00  0.2917E+00
    -14.647  0.1397E-01  0.2918E+00
    -14.636  0.8997E+00  0.3016E+00
    -14.625  0.8363E+01  0.3929E+00
    -14.615  0.1135E+02  0.5168E+00
    -14.604  0.3386E+01  0.5538E+00
    -14.593  0.4225E+01  0.5999E+00
    -14.582  0.2147E+01  0.6234E+00
    -14.571  0.1468E+00  0.6250E+00
    -14.560  0.1174E-02  0.6250E+00
    -14.549  0.5867E-02  0.6251E+00
    -14.538  0.3932E+00  0.6294E+00
    -14.527  0.3178E+01  0.6641E+00
    -14.516  0.3625E+01  0.7036E+00
    -14.505  0.2447E+01  0.7303E+00
    -14.494  0.4247E+01  0.7767E+00
    -14.484  0.1317E+01  0.7911E+00
    -14.473  0.5334E-01  0.7917E+00
    -14.462  0.1452E+00  0.7933E+00
    -14.451  0.3089E+01  0.8270E+00
    -14.440  0.8544E+01  0.9203E+00
    -14.429  0.3317E+01  0.9565E+00
    -14.418  0.1678E+00  0.9583E+00
    -14.407  0.9904E-03  0.9583E+00
    -14.396  0.1083E-01  0.9585E+00
    -14.385  0.5610E+00  0.9646E+00
    -14.374  0.3561E+01  0.1003E+01
    -14.363  0.3256E+01  0.1039E+01
    -14.353  0.3356E+01  0.1076E+01
    -14.342  0.8542E+01  0.1169E+01
    -14.331  0.3430E+01  0.1206E+01
    -14.320  0.1800E+00  0.1208E+01
    -14.309  0.1079E-02  0.1208E+01
    -14.298  0.6723E-06  0.1208E+01
    -14.287  0.4147E-10  0.1208E+01
    -14.276  0.6717E-09  0.1208E+01
    -14.265  0.5033E-05  0.1208E+01
    -14.254  0.3781E-02  0.1208E+01
    -14.243  0.3028E+00  0.1212E+01
    -14.232  0.2891E+01  0.1243E+01
    -14.222  0.3751E+01  0.1284E+01
    -14.211  0.1115E+01  0.1296E+01
    -14.200  0.6002E+01  0.1362E+01
    -14.189  0.1215E+02  0.1495E+01
    -14.178  0.4095E+01  0.1539E+01
    -14.167  0.2193E+00  0.1542E+01
    -14.156  0.1600E-02  0.1542E+01
    -14.145  0.1350E-05  0.1542E+01
    -14.134  0.1614E-09  0.1542E+01
    -14.123  0.6952E-06  0.1542E+01
    -14.112  0.1109E-02  0.1542E+01
    -14.101  0.1859E+00  0.1544E+01
    -14.090  0.3727E+01  0.1584E+01
    -14.080  0.1131E+02  0.1708E+01
    -14.069  0.7126E+01  0.1786E+01
    -14.058  0.3875E+01  0.1828E+01
    -14.047  0.3674E+01  0.1868E+01
    -14.036  0.6348E+00  0.1875E+01
    -14.025  0.1080E+01  0.1887E+01
    -14.014  0.7015E+01  0.1963E+01
    -14.003  0.6362E+01  0.2033E+01
    -13.992  0.7895E+00  0.2042E+01
    -13.981  0.4675E-01  0.2042E+01
    -13.970  0.1067E+01  0.2054E+01
    -13.959  0.4130E+01  0.2099E+01
    -13.949  0.2238E+01  0.2123E+01
    -13.938  0.1619E+00  0.2125E+01
    -13.927  0.1200E+00  0.2126E+01
    -13.916  0.3068E+01  0.2160E+01
    -13.905  0.1282E+02  0.2300E+01
    -13.894  0.1199E+02  0.2431E+01
    -13.883  0.2455E+01  0.2457E+01
    -13.872  0.7855E-01  0.2458E+01
    -13.861  0.2968E-03  0.2458E+01
    -13.850  0.1167E-05  0.2458E+01
    -13.839  0.1495E-02  0.2458E+01
    -13.828  0.2232E+00  0.2461E+01
    -13.818  0.3959E+01  0.2504E+01
    -13.807  0.1081E+02  0.2622E+01
    -13.796  0.6758E+01  0.2696E+01
    -13.785  0.1110E+01  0.2708E+01
    -13.774  0.3153E-01  0.2708E+01
    -13.763  0.1069E-03  0.2708E+01
    -13.752  0.3755E-07  0.2708E+01
    -13.741  0.1296E-11  0.2708E+01
    -13.730  0.8474E-15  0.2708E+01
    -13.719  0.1132E-09  0.2708E+01
    -13.708  0.1477E-05  0.2708E+01
    -13.697  0.1913E-02  0.2708E+01
    -13.687  0.2594E+00  0.2711E+01
    -13.676  0.4062E+01  0.2756E+01
    -13.665  0.8410E+01  0.2847E+01
    -13.654  0.2443E+01  0.2874E+01
    -13.643  0.3902E+00  0.2878E+01
    -13.632  0.4333E+01  0.2926E+01
    -13.621  0.8318E+01  0.3016E+01
    -13.610  0.2236E+01  0.3041E+01
    -13.599  0.7641E-01  0.3042E+01
    -13.588  0.2913E-03  0.3042E+01
    -13.577  0.1140E-06  0.3042E+01
    -13.566  0.4386E-11  0.3042E+01
    -13.555  0.0000E+00  0.3042E+01
    -13.545  0.4576E-12  0.3042E+01
    -13.534  0.1876E-07  0.3042E+01
    -13.523  0.7527E-04  0.3042E+01
    -13.512  0.3066E-01  0.3042E+01
    -13.501  0.1365E+01  0.3057E+01
    -13.490  0.7519E+01  0.3139E+01
    -13.479  0.5747E+01  0.3202E+01
    -13.468  0.5988E+00  0.3208E+01
    -13.457  0.2563E+00  0.3211E+01
    -13.446  0.2680E+01  0.3240E+01
    -13.435  0.3894E+01  0.3283E+01
    -13.424  0.7874E+00  0.3291E+01
    -13.414  0.1991E-01  0.3292E+01
    -13.403  0.2797E-01  0.3292E+01
    -13.392  0.1542E+01  0.3309E+01
    -13.381  0.1040E+02  0.3422E+01
    -13.370  0.9686E+01  0.3528E+01
    -13.359  0.1835E+01  0.3548E+01
    -13.348  0.3652E+01  0.3588E+01
    -13.337  0.3036E+01  0.3621E+01
    -13.326  0.3457E+00  0.3625E+01
    -13.315  0.4718E-02  0.3625E+01
    -13.304  0.4407E-04  0.3625E+01
    -13.293  0.1887E-01  0.3625E+01
    -13.283  0.1037E+01  0.3637E+01
    -13.272  0.6954E+01  0.3712E+01
    -13.261  0.6429E+01  0.3783E+01
    -13.250  0.8138E+00  0.3792E+01
    -13.239  0.1788E-01  0.3792E+01
    -13.228  0.5644E+00  0.3798E+01
    -13.217  0.7674E+01  0.3882E+01
    -13.206  0.1625E+02  0.4059E+01
    -13.195  0.5783E+01  0.4122E+01
    -13.184  0.1611E+01  0.4140E+01
    -13.173  0.4235E+01  0.4186E+01
    -13.162  0.1928E+01  0.4207E+01
    -13.152  0.1156E+00  0.4208E+01
    -13.141  0.5290E-02  0.4208E+01
    -13.130  0.4414E+00  0.4213E+01
    -13.119  0.5107E+01  0.4269E+01
    -13.108  0.7956E+01  0.4356E+01
    -13.097  0.2346E+01  0.4381E+01
    -13.086  0.3716E+01  0.4422E+01
    -13.075  0.2991E+01  0.4455E+01
    -13.064  0.4273E+00  0.4459E+01
    -13.053  0.2550E+01  0.4487E+01
    -13.042  0.1098E+02  0.4607E+01
    -13.031  0.8266E+01  0.4697E+01
    -13.021  0.9904E+00  0.4708E+01
    -13.010  0.1559E-01  0.4708E+01
    -12.999  0.2740E-04  0.4708E+01
    -12.988  0.5096E-06  0.4708E+01
    -12.977  0.8744E-03  0.4708E+01
    -12.966  0.1572E+00  0.4710E+01
    -12.955  0.3214E+01  0.4745E+01
    -12.944  0.8547E+01  0.4838E+01
    -12.933  0.3191E+01  0.4873E+01
    -12.922  0.1548E+00  0.4875E+01
    -12.911  0.8549E-03  0.4875E+01
    -12.900  0.9201E-03  0.4875E+01
    -12.889  0.1624E+00  0.4877E+01
    -12.879  0.3265E+01  0.4912E+01
    -12.868  0.8546E+01  0.5006E+01
    -12.857  0.3189E+01  0.5041E+01
    -12.846  0.1904E+01  0.5061E+01
    -12.835  0.7974E+01  0.5148E+01
    -12.824  0.5054E+01  0.5204E+01
    -12.813  0.4308E+00  0.5208E+01
    -12.802  0.9122E-01  0.5209E+01
    -12.791  0.1735E+01  0.5228E+01
    -12.780  0.6049E+01  0.5294E+01
    -12.769  0.9515E+01  0.5398E+01
    -12.758  0.5084E+01  0.5454E+01
    -12.748  0.4226E+00  0.5458E+01
    -12.737  0.1043E-01  0.5458E+01
    -12.726  0.5400E+00  0.5464E+01
    -12.715  0.5534E+01  0.5525E+01
    -12.704  0.7671E+01  0.5608E+01
    -12.693  0.1479E+01  0.5625E+01
    -12.682  0.9352E-01  0.5626E+01
    -12.671  0.2322E+01  0.5651E+01
    -12.660  0.1194E+02  0.5781E+01
    -12.649  0.1115E+02  0.5903E+01
    -12.638  0.4429E+01  0.5951E+01
    -12.627  0.1008E+01  0.5962E+01
    -12.617  0.4857E+01  0.6016E+01
    -12.606  0.8087E+01  0.6104E+01
    -12.595  0.1886E+01  0.6124E+01
    -12.584  0.6384E-01  0.6125E+01
    -12.573  0.6248E+00  0.6132E+01
    -12.562  0.6368E+01  0.6201E+01
    -12.551  0.9768E+01  0.6308E+01
    -12.540  0.2244E+01  0.6333E+01
    -12.529  0.6797E-01  0.6333E+01
    -12.518  0.2346E-03  0.6333E+01
    -12.507  0.4288E-03  0.6333E+01
    -12.496  0.1244E+00  0.6335E+01
    -12.486  0.4012E+01  0.6378E+01
    -12.475  0.1635E+02  0.6557E+01
    -12.464  0.9324E+01  0.6659E+01
    -12.453  0.7103E+00  0.6667E+01
    -12.442  0.6324E-02  0.6667E+01
    -12.431  0.5935E-05  0.6667E+01
    -12.420  0.8705E-09  0.6667E+01
    -12.409  0.2911E-05  0.6667E+01
    -12.398  0.2822E-02  0.6667E+01
    -12.387  0.3205E+00  0.6670E+01
    -12.376  0.4998E+01  0.6725E+01
    -12.365  0.1232E+02  0.6859E+01
    -12.354  0.5097E+01  0.6915E+01
    -12.344  0.3291E+01  0.6951E+01
    -12.333  0.8772E+01  0.7047E+01
    -12.322  0.6019E+01  0.7112E+01
    -12.311  0.4119E+01  0.7157E+01
    -12.300  0.8316E+00  0.7166E+01
    -12.289  0.2189E-01  0.7167E+01
    -12.278  0.6351E-04  0.7167E+01
    -12.267  0.1879E-07  0.7167E+01
    -12.256  0.5440E-12  0.7167E+01
    -12.245  0.0000E+00  0.7167E+01
    -12.234  0.1385E-10  0.7167E+01
    -12.223  0.2110E-06  0.7167E+01
    -12.213  0.3184E-03  0.7167E+01
    -12.202  0.5011E-01  0.7167E+01
    -12.191  0.9230E+00  0.7177E+01
    -12.180  0.2950E+01  0.7210E+01
    -12.169  0.4636E+01  0.7260E+01
    -12.158  0.2678E+01  0.7289E+01
    -12.147  0.1494E+01  0.7306E+01
    -12.136  0.7504E+01  0.7388E+01
    -12.125  0.9066E+01  0.7487E+01
    -12.114  0.9726E+01  0.7593E+01
    -12.103  0.6809E+01  0.7667E+01
    -12.092  0.3656E+01  0.7707E+01
    -12.082  0.4656E+01  0.7758E+01
    -12.071  0.8353E+01  0.7849E+01
    -12.060  0.2296E+01  0.7874E+01
    -12.049  0.3306E+00  0.7878E+01
    -12.038  0.3998E+01  0.7921E+01
    -12.027  0.8437E+01  0.8014E+01
    -12.016  0.2977E+01  0.8046E+01
    -12.005  0.4768E+01  0.8098E+01
    -11.994  0.1225E+02  0.8232E+01
    -11.983  0.1498E+02  0.8395E+01
    -11.972  0.1071E+02  0.8512E+01
    -11.961  0.2602E+01  0.8541E+01
    -11.951  0.8658E+00  0.8550E+01
    -11.940  0.6969E+01  0.8626E+01
    -11.929  0.1327E+02  0.8771E+01
    -11.918  0.1728E+02  0.8960E+01
    -11.907  0.1448E+02  0.9118E+01
    -11.896  0.4239E+01  0.9164E+01
    -11.885  0.2356E+00  0.9167E+01
    -11.874  0.4227E+00  0.9171E+01
    -11.863  0.5009E+01  0.9226E+01
    -11.852  0.7999E+01  0.9313E+01
    -11.841  0.1952E+01  0.9335E+01
    -11.830  0.3411E+01  0.9372E+01
    -11.819  0.9378E+01  0.9474E+01
    -11.809  0.7012E+01  0.9551E+01
    -11.798  0.2741E+01  0.9581E+01
    -11.787  0.2312E+00  0.9583E+01
    -11.776  0.2429E-02  0.9583E+01
    -11.765  0.9556E-02  0.9583E+01
    -11.754  0.5240E+00  0.9589E+01
    -11.743  0.3683E+01  0.9629E+01
    -11.732  0.5652E+01  0.9691E+01
    -11.721  0.4436E+01  0.9740E+01
    -11.710  0.1071E+01  0.9751E+01
    -11.699  0.3915E+01  0.9794E+01
    -11.688  0.1565E+02  0.9965E+01
    -11.678  0.9895E+01  0.1007E+02
    -11.667  0.9458E+00  0.1008E+02
    -11.656  0.1186E-01  0.1008E+02
    -11.645  0.1749E-04  0.1008E+02
    -11.634  0.1069E-02  0.1008E+02
    -11.623  0.2208E+00  0.1009E+02
    -11.612  0.5301E+01  0.1014E+02
    -11.601  0.1683E+02  0.1033E+02
    -11.590  0.7696E+01  0.1041E+02
    -11.579  0.5220E+00  0.1042E+02
    -11.568  0.1221E+01  0.1043E+02
    -11.557  0.4204E+01  0.1048E+02
    -11.547  0.2035E+01  0.1050E+02
    -11.536  0.1302E+00  0.1050E+02
    -11.525  0.9627E-03  0.1050E+02
    -11.514  0.3844E-05  0.1050E+02
    -11.503  0.3288E-02  0.1050E+02
    -11.492  0.3746E+00  0.1050E+02
    -11.481  0.5308E+01  0.1056E+02
    -11.470  0.1180E+02  0.1069E+02
    -11.459  0.5008E+01  0.1075E+02
    -11.448  0.5924E+00  0.1075E+02
    -11.437  0.2396E+01  0.1078E+02
    -11.426  0.4062E+01  0.1082E+02
    -11.416  0.1241E+01  0.1084E+02
    -11.405  0.4221E+01  0.1088E+02
    -11.394  0.8435E+01  0.1097E+02
    -11.383  0.4422E+01  0.1102E+02
    -11.372  0.8312E+01  0.1111E+02
    -11.361  0.4550E+01  0.1116E+02
    -11.350  0.3353E+00  0.1117E+02
    -11.339  0.2880E-02  0.1117E+02
    -11.328  0.2602E-05  0.1117E+02
    -11.317  0.2340E-09  0.1117E+02
    -11.306  0.1695E-14  0.1117E+02
    -11.295  0.0000E+00  0.1117E+02
    -11.285  0.3152E-12  0.1117E+02
    -11.274  0.1393E-07  0.1117E+02
    -11.263  0.6009E-04  0.1117E+02
    -11.252  0.2627E-01  0.1117E+02
    -11.241  0.1252E+01  0.1118E+02
    -11.230  0.7347E+01  0.1126E+02
    -11.219  0.5971E+01  0.1133E+02
    -11.208  0.6608E+00  0.1133E+02
    -11.197  0.7230E-01  0.1133E+02
    -11.186  0.1448E+01  0.1135E+02
    -11.175  0.4263E+01  0.1140E+02
    -11.164  0.1761E+01  0.1142E+02
    -11.153  0.9521E-01  0.1142E+02
    -11.143  0.5889E-03  0.1142E+02
    -11.132  0.3790E-06  0.1142E+02
    -11.121  0.2416E-10  0.1142E+02
    -11.110  0.0000E+00  0.1142E+02
    -11.099  0.0000E+00  0.1142E+02
    -11.088  0.0000E+00  0.1142E+02
    -11.077  0.0000E+00  0.1142E+02
    -11.066  0.0000E+00  0.1142E+02
    -11.055  0.0000E+00  0.1142E+02
    -11.044  0.2390E-12  0.1142E+02
    -11.033  0.1116E-07  0.1142E+02
    -11.022  0.5077E-04  0.1142E+02
    -11.012  0.2340E-01  0.1142E+02
    -11.001  0.1172E+01  0.1143E+02
    -10.990  0.7212E+01  0.1151E+02
    -10.979  0.6135E+01  0.1158E+02
    -10.968  0.7118E+00  0.1158E+02
    -10.957  0.9911E-02  0.1158E+02
    -10.946  0.1478E-04  0.1158E+02
    -10.935  0.2214E-08  0.1158E+02
    -10.924  0.2257E-07  0.1158E+02
    -10.913  0.7289E-04  0.1158E+02
    -10.902  0.2405E-01  0.1158E+02
    -10.891  0.8882E+00  0.1159E+02
    -10.881  0.4876E+01  0.1165E+02
    -10.870  0.9164E+01  0.1175E+02
    -10.859  0.6979E+01  0.1182E+02
    -10.848  0.9505E+00  0.1183E+02
    -10.837  0.1644E-01  0.1183E+02
    -10.826  0.5868E-01  0.1183E+02
    -10.815  0.1392E+01  0.1185E+02
    -10.804  0.4254E+01  0.1190E+02
    -10.793  0.1825E+01  0.1192E+02
    -10.782  0.1027E+00  0.1192E+02
    -10.771  0.6625E-03  0.1192E+02
    -10.760  0.4455E-06  0.1192E+02
    -10.750  0.2968E-10  0.1192E+02
    -10.739  0.0000E+00  0.1192E+02
    -10.728  0.0000E+00  0.1192E+02
    -10.717  0.0000E+00  0.1192E+02
    -10.706  0.6991E-13  0.1192E+02
    -10.695  0.3614E-08  0.1192E+02
    -10.684  0.1825E-04  0.1192E+02
    -10.673  0.9315E-02  0.1192E+02
    -10.662  0.5147E+00  0.1192E+02
    -10.651  0.3469E+01  0.1196E+02
    -10.640  0.3223E+01  0.1200E+02
    -10.629  0.4101E+00  0.1200E+02
    -10.618  0.6300E-02  0.1200E+02
    -10.608  0.2623E-04  0.1200E+02
    -10.597  0.8436E-02  0.1200E+02
    -10.586  0.4861E+00  0.1201E+02
    -10.575  0.3408E+01  0.1204E+02
    -10.564  0.3288E+01  0.1208E+02
    -10.553  0.4352E+00  0.1208E+02
    -10.542  0.6975E-02  0.1208E+02
    -10.531  0.1815E-02  0.1208E+02
    -10.520  0.1928E+00  0.1209E+02
    -10.509  0.2414E+01  0.1211E+02
    -10.498  0.4048E+01  0.1216E+02
    -10.487  0.9479E+00  0.1217E+02
    -10.477  0.2795E-01  0.1217E+02
    -10.466  0.9129E-04  0.1217E+02
    -10.455  0.3068E-07  0.1217E+02
    -10.444  0.2297E-05  0.1217E+02
    -10.433  0.2633E-02  0.1217E+02
    -10.422  0.3170E+00  0.1217E+02
    -10.411  0.4441E+01  0.1222E+02
    -10.400  0.8275E+01  0.1231E+02
    -10.389  0.2158E+01  0.1233E+02
    -10.378  0.7140E-01  0.1233E+02
    -10.367  0.2631E-03  0.1233E+02
    -10.356  0.9944E-07  0.1233E+02
    -10.346  0.3693E-11  0.1233E+02
    -10.335  0.0000E+00  0.1233E+02
    -10.324  0.0000E+00  0.1233E+02
    -10.313  0.0000E+00  0.1233E+02
    -10.302  0.2482E-11  0.1233E+02
    -10.291  0.6288E-07  0.1233E+02
    -10.280  0.1567E-03  0.1233E+02
    -10.269  0.4010E-01  0.1233E+02
    -10.258  0.1146E+01  0.1235E+02
    -10.247  0.4173E+01  0.1239E+02
    -10.236  0.2128E+01  0.1242E+02
    -10.225  0.1439E+00  0.1242E+02
    -10.215  0.1128E-02  0.1242E+02
    -10.204  0.9270E-06  0.1242E+02
    -10.193  0.7574E-10  0.1242E+02
    -10.182  0.7965E-13  0.1242E+02
    -10.171  0.4596E-08  0.1242E+02
    -10.160  0.2585E-04  0.1242E+02
    -10.149  0.1466E-01  0.1242E+02
    -10.138  0.8960E+00  0.1243E+02
    -10.127  0.6639E+01  0.1250E+02
    -10.116  0.6754E+01  0.1257E+02
    -10.105  0.9448E+00  0.1258E+02
    -10.094  0.1606E-01  0.1258E+02
    -10.083  0.2948E-04  0.1258E+02
    -10.073  0.5458E-08  0.1258E+02
    -10.062  0.9830E-13  0.1258E+02
    -10.051  0.0000E+00  0.1258E+02
    -10.040  0.0000E+00  0.1258E+02
    -10.029  0.0000E+00  0.1258E+02
    -10.018  0.0000E+00  0.1258E+02
    -10.007  0.0000E+00  0.1258E+02
     -9.996  0.0000E+00  0.1258E+02
     -9.985  0.4491E-13  0.1258E+02
     -9.974  0.2892E-08  0.1258E+02
     -9.963  0.1814E-04  0.1258E+02
     -9.952  0.1144E-01  0.1258E+02
     -9.942  0.7751E+00  0.1259E+02
     -9.931  0.6322E+01  0.1266E+02
     -9.920  0.7051E+01  0.1274E+02
     -9.909  0.1085E+01  0.1275E+02
     -9.898  0.2043E-01  0.1275E+02
     -9.887  0.4174E-04  0.1275E+02
     -9.876  0.8082E-04  0.1275E+02
     -9.865  0.3218E-01  0.1275E+02
     -9.854  0.1402E+01  0.1277E+02
     -9.843  0.7573E+01  0.1285E+02
     -9.832  0.5859E+01  0.1291E+02
     -9.821  0.2940E+01  0.1294E+02
     -9.811  0.4080E+01  0.1299E+02
     -9.800  0.9812E+00  0.1300E+02
     -9.789  0.2982E-01  0.1300E+02
     -9.778  0.1005E-03  0.1300E+02
     -9.767  0.2730E-04  0.1300E+02
     -9.756  0.1521E-01  0.1300E+02
     -9.745  0.9156E+00  0.1301E+02
     -9.734  0.6686E+01  0.1308E+02
     -9.723  0.6708E+01  0.1316E+02
     -9.712  0.9248E+00  0.1317E+02
     -9.701  0.1548E-01  0.1317E+02
     -9.690  0.2795E-04  0.1317E+02
     -9.680  0.1141E-07  0.1317E+02
     -9.669  0.3296E-04  0.1317E+02
     -9.658  0.1736E-01  0.1317E+02
     -9.647  0.9881E+00  0.1318E+02
     -9.636  0.6854E+01  0.1325E+02
     -9.625  0.6803E+01  0.1333E+02
     -9.614  0.3600E+01  0.1337E+02
     -9.603  0.3864E+01  0.1341E+02
     -9.592  0.7514E+00  0.1342E+02
     -9.581  0.3624E-01  0.1342E+02
     -9.570  0.1036E+01  0.1343E+02
     -9.559  0.7860E+01  0.1351E+02
     -9.549  0.1056E+02  0.1363E+02
     -9.538  0.3224E+01  0.1366E+02
     -9.527  0.5193E+00  0.1367E+02
     -9.516  0.3004E+01  0.1370E+02
     -9.505  0.5529E+01  0.1376E+02
     -9.494  0.8683E+01  0.1386E+02
     -9.483  0.4949E+01  0.1391E+02
     -9.472  0.4063E+00  0.1392E+02
     -9.461  0.3925E-02  0.1392E+02
     -9.450  0.4052E-05  0.1392E+02
     -9.439  0.1644E-03  0.1392E+02
     -9.428  0.5885E-01  0.1392E+02
     -9.417  0.2333E+01  0.1394E+02
     -9.407  0.1162E+02  0.1407E+02
     -9.396  0.8109E+01  0.1416E+02
     -9.385  0.9164E+00  0.1417E+02
     -9.374  0.3112E+01  0.1420E+02
     -9.363  0.8565E+01  0.1430E+02
     -9.352  0.4144E+01  0.1434E+02
     -9.341  0.5421E+01  0.1440E+02
     -9.330  0.6942E+01  0.1448E+02
     -9.319  0.2677E+01  0.1451E+02
     -9.308  0.5763E+01  0.1457E+02
     -9.297  0.7593E+01  0.1465E+02
     -9.286  0.1922E+01  0.1467E+02
     -9.276  0.5434E+01  0.1473E+02
     -9.265  0.7760E+01  0.1482E+02
     -9.254  0.1570E+01  0.1483E+02
     -9.243  0.7999E+00  0.1484E+02
     -9.232  0.3870E+01  0.1488E+02
     -9.221  0.3495E+01  0.1492E+02
     -9.210  0.9908E+01  0.1503E+02
     -9.199  0.1958E+02  0.1524E+02
     -9.188  0.1969E+02  0.1546E+02
     -9.177  0.1044E+02  0.1557E+02
     -9.166  0.9527E+00  0.1558E+02
     -9.155  0.1106E+01  0.1560E+02
     -9.145  0.4147E+01  0.1564E+02
     -9.134  0.2198E+01  0.1566E+02
     -9.123  0.4083E+00  0.1567E+02
     -9.112  0.4023E+01  0.1571E+02
     -9.101  0.8422E+01  0.1581E+02
     -9.090  0.2472E+01  0.1583E+02
     -9.079  0.9281E-01  0.1583E+02
     -9.068  0.1419E-02  0.1583E+02
     -9.057  0.1773E+00  0.1584E+02
     -9.046  0.3731E+01  0.1588E+02
     -9.035  0.1320E+02  0.1602E+02
     -9.024  0.1121E+02  0.1614E+02
     -9.014  0.2145E+01  0.1617E+02
     -9.003  0.6331E-01  0.1617E+02
     -8.992  0.1053E+00  0.1617E+02
     -8.981  0.2628E+01  0.1620E+02
     -8.970  0.8466E+01  0.1629E+02
     -8.959  0.3835E+01  0.1633E+02
     -8.948  0.2313E+00  0.1633E+02
     -8.937  0.2573E+00  0.1634E+02
     -8.926  0.4036E+01  0.1638E+02
     -8.915  0.8418E+01  0.1647E+02
     -8.904  0.2461E+01  0.1650E+02
     -8.893  0.9200E-01  0.1650E+02
     -8.882  0.1102E-02  0.1650E+02
     -8.872  0.1521E+00  0.1650E+02
     -8.861  0.4164E+01  0.1655E+02
     -8.850  0.1863E+02  0.1675E+02
     -8.839  0.1765E+02  0.1694E+02
     -8.828  0.4830E+01  0.1700E+02
     -8.817  0.8776E+00  0.1701E+02
     -8.806  0.5409E+01  0.1706E+02
     -8.795  0.7844E+01  0.1715E+02
     -8.784  0.3228E+01  0.1719E+02
     -8.773  0.4310E+01  0.1723E+02
     -8.762  0.1526E+01  0.1725E+02
     -8.751  0.7290E-01  0.1725E+02
     -8.741  0.2886E+00  0.1725E+02
     -8.730  0.4742E+01  0.1730E+02
     -8.719  0.1523E+02  0.1747E+02
     -8.708  0.1481E+02  0.1763E+02
     -8.697  0.5704E+01  0.1770E+02
     -8.686  0.7137E+01  0.1777E+02
     -8.675  0.1093E+02  0.1789E+02
     -8.664  0.7201E+01  0.1797E+02
     -8.653  0.6953E+01  0.1805E+02
     -8.642  0.5929E+01  0.1811E+02
     -8.631  0.1221E+01  0.1813E+02
     -8.620  0.1818E+01  0.1815E+02
     -8.610  0.8087E+01  0.1823E+02
     -8.599  0.6716E+01  0.1831E+02
     -8.588  0.4717E+01  0.1836E+02
     -8.577  0.3211E+01  0.1839E+02
     -8.566  0.1324E+02  0.1854E+02
     -8.555  0.1550E+02  0.1871E+02
     -8.544  0.9627E+01  0.1881E+02
     -8.533  0.8106E+01  0.1890E+02
     -8.522  0.1442E+01  0.1892E+02
     -8.511  0.9892E-01  0.1892E+02
     -8.500  0.1021E+01  0.1893E+02
     -8.489  0.2101E+01  0.1895E+02
     -8.479  0.6058E+00  0.1896E+02
     -8.468  0.2232E-01  0.1896E+02
     -8.457  0.9210E-04  0.1896E+02
     -8.446  0.3909E-07  0.1896E+02
     -8.435  0.1633E-11  0.1896E+02
     -8.424  0.0000E+00  0.1896E+02
     -8.413  0.0000E+00  0.1896E+02
     -8.402  0.0000E+00  0.1896E+02
     -8.391  0.0000E+00  0.1896E+02
     -8.380  0.0000E+00  0.1896E+02
     -8.369  0.0000E+00  0.1896E+02
     -8.358  0.4364E-13  0.1896E+02
     -8.348  0.2471E-08  0.1896E+02
     -8.337  0.1366E-04  0.1896E+02
     -8.326  0.7619E-02  0.1896E+02
     -8.315  0.4582E+00  0.1896E+02
     -8.304  0.3344E+01  0.1900E+02
     -8.293  0.3353E+01  0.1904E+02
     -8.282  0.4620E+00  0.1904E+02
     -8.271  0.7727E-02  0.1904E+02
     -8.260  0.5021E-04  0.1904E+02
     -8.249  0.1855E-01  0.1904E+02
     -8.238  0.1029E+01  0.1905E+02
     -8.227  0.7335E+01  0.1913E+02
     -8.216  0.1351E+02  0.1928E+02
     -8.206  0.1772E+02  0.1947E+02
     -8.195  0.5901E+01  0.1954E+02
     -8.184  0.2814E+00  0.1954E+02
     -8.173  0.4847E+00  0.1955E+02
     -8.162  0.5297E+01  0.1960E+02
     -8.151  0.7828E+01  0.1969E+02
     -8.140  0.1611E+01  0.1971E+02
     -8.129  0.4138E-01  0.1971E+02
     -8.118  0.1169E-03  0.1971E+02
     -8.107  0.3365E-07  0.1971E+02
     -8.096  0.1002E-09  0.1971E+02
     -8.085  0.1144E-05  0.1971E+02
     -8.075  0.1313E-02  0.1971E+02
     -8.064  0.1582E+00  0.1971E+02
     -8.053  0.2219E+01  0.1973E+02
     -8.042  0.4138E+01  0.1978E+02
     -8.031  0.1080E+01  0.1979E+02
     -8.020  0.4626E-01  0.1979E+02
     -8.009  0.7376E+00  0.1980E+02
     -7.998  0.6378E+01  0.1987E+02
     -7.987  0.9438E+01  0.1997E+02
     -7.976  0.5246E+01  0.2003E+02
     -7.965  0.1074E+01  0.2004E+02
     -7.954  0.1113E+01  0.2005E+02
     -7.944  0.7043E+01  0.2013E+02
     -7.933  0.6453E+01  0.2020E+02
     -7.922  0.3608E+01  0.2024E+02
     -7.911  0.8528E+01  0.2033E+02
     -7.900  0.3597E+01  0.2037E+02
     -7.889  0.1992E+00  0.2037E+02
     -7.878  0.1263E-02  0.2037E+02
     -7.867  0.8344E-06  0.2037E+02
     -7.856  0.5460E-10  0.2037E+02
     -7.845  0.1195E-12  0.2037E+02
     -7.834  0.6379E-08  0.2038E+02
     -7.823  0.3320E-04  0.2038E+02
     -7.813  0.1744E-01  0.2038E+02
     -7.802  0.9910E+00  0.2039E+02
     -7.791  0.6857E+01  0.2046E+02
     -7.780  0.6535E+01  0.2053E+02
     -7.769  0.1077E+01  0.2054E+02
     -7.758  0.2583E+01  0.2057E+02
     -7.747  0.3962E+01  0.2062E+02
     -7.736  0.8518E+00  0.2062E+02
     -7.725  0.2292E-01  0.2062E+02
     -7.714  0.7776E-04  0.2063E+02
     -7.703  0.7767E-02  0.2063E+02
     -7.692  0.7006E+00  0.2063E+02
     -7.681  0.8460E+01  0.2073E+02
     -7.671  0.1729E+02  0.2091E+02
     -7.660  0.9363E+01  0.2102E+02
     -7.649  0.2222E+01  0.2104E+02
     -7.638  0.1229E+00  0.2104E+02
     -7.627  0.8627E-03  0.2104E+02
     -7.616  0.6394E-06  0.2104E+02
     -7.605  0.4708E-10  0.2104E+02
     -7.594  0.5084E-14  0.2104E+02
     -7.583  0.5085E-09  0.2104E+02
     -7.572  0.4753E-05  0.2104E+02
     -7.561  0.4436E-02  0.2104E+02
     -7.550  0.4381E+00  0.2105E+02
     -7.540  0.5091E+01  0.2110E+02
     -7.529  0.7952E+01  0.2119E+02
     -7.518  0.1732E+01  0.2121E+02
     -7.507  0.4728E-01  0.2121E+02
     -7.496  0.1423E-03  0.2121E+02
     -7.485  0.4372E-07  0.2121E+02
     -7.474  0.1317E-11  0.2121E+02
     -7.463  0.0000E+00  0.2121E+02
     -7.452  0.0000E+00  0.2121E+02
     -7.441  0.1876E-10  0.2121E+02
     -7.430  0.3107E-06  0.2121E+02
     -7.419  0.5093E-03  0.2121E+02
     -7.409  0.8672E-01  0.2121E+02
     -7.398  0.1685E+01  0.2123E+02
     -7.387  0.4271E+01  0.2127E+02
     -7.376  0.1519E+01  0.2129E+02
     -7.365  0.7005E-01  0.2129E+02
     -7.354  0.3662E-03  0.2129E+02
     -7.343  0.1265E-04  0.2129E+02
     -7.332  0.7141E-02  0.2129E+02
     -7.321  0.4412E+00  0.2130E+02
     -7.310  0.3305E+01  0.2133E+02
     -7.299  0.3685E+01  0.2137E+02
     -7.288  0.4762E+01  0.2142E+02
     -7.278  0.8345E+01  0.2152E+02
     -7.267  0.2273E+01  0.2154E+02
     -7.256  0.1274E+00  0.2154E+02
     -7.245  0.1757E+01  0.2156E+02
     -7.234  0.7975E+01  0.2165E+02
     -7.223  0.5050E+01  0.2170E+02
     -7.212  0.4295E+00  0.2171E+02
     -7.201  0.4296E-02  0.2171E+02
     -7.190  0.4545E-05  0.2171E+02
     -7.179  0.4799E-09  0.2171E+02
     -7.168  0.5084E-14  0.2171E+02
     -7.157  0.0000E+00  0.2171E+02
     -7.146  0.0000E+00  0.2171E+02
     -7.136  0.0000E+00  0.2171E+02
     -7.125  0.0000E+00  0.2171E+02
     -7.114  0.0000E+00  0.2171E+02
     -7.103  0.0000E+00  0.2171E+02
     -7.092  0.0000E+00  0.2171E+02
     -7.081  0.0000E+00  0.2171E+02
     -7.070  0.0000E+00  0.2171E+02
     -7.059  0.0000E+00  0.2171E+02
     -7.048  0.0000E+00  0.2171E+02
     -7.037  0.3390E-14  0.2171E+02
     -7.026  0.3340E-09  0.2171E+02
     -7.015  0.3431E-05  0.2171E+02
     -7.005  0.3513E-02  0.2171E+02
     -6.994  0.3794E+00  0.2171E+02
     -6.983  0.4796E+01  0.2176E+02
     -6.972  0.8112E+01  0.2185E+02
     -6.961  0.1945E+01  0.2187E+02
     -6.950  0.9997E+00  0.2189E+02
     -6.939  0.4044E+01  0.2193E+02