<?xml version="1.0" encoding="ISO-8859-1"?>
<modeling>
 <generator>
  <i name="program" type="string">vasp </i>
  <i name="version" type="string">5.4.4.18Apr17-6-g9f103f2a35  </i>
  <i name="subversion" type="string">(build Jun 20 2017 18:00:50) complex            parallel </i>
  <i name="platform" type="string">LinuxIFC </i>
  <i name="date" type="string">2018 03 22 </i>
  <i name="time" type="string">15:22:28 </i>
 </generator>
 <incar>
  <i type="string" name="SYSTEM"> Generic Input</i>
  <i type="int" name="ISTART">     1</i>
  <i type="string" name="PREC">normal    ! precision level</i>
  <i type="int" name="IALGO">    53</i>
  <i type="string" name="ALGO"> Normal    ! SCF minimisation algorithm</i>
  <i type="int" name="INIWAV">     1</i>
  <i type="int" name="NELM">   200</i>
  <i type="int" name="NELMIN">     2</i>
  <i type="int" name="IBRION">     2</i>
  <i name="EDIFF">      0.00001000</i>
  <i name="EDIFFG">     -0.02000000</i>
  <i type="int" name="NSW">     0</i>
  <i type="int" name="ISIF">     3</i>
  <i type="int" name="IWAVPR">    11</i>
  <i type="int" name="NBLOCK">     1</i>
  <i type="int" name="KBLOCK">    40</i>
  <i name="ENCUT">    450.00000000</i>
  <i type="int" name="NEDOS">  2000</i>
  <i type="int" name="ISMEAR">     0</i>
  <i name="SIGMA">      0.01000000</i>
  <i type="int" name="NWRITE">     2</i>
  <i type="logical" name="LVHAR"> T  </i>
  <i type="int" name="LORBIT">    11</i>
  <i type="logical" name="LASPH"> T  </i>
  <i type="int" name="ICORELEVEL">     1</i>
  <v type="int" name="KPOINT_BSE">    -1     0     0     0</v>
  <i type="int" name="NELM">   200</i>
  <i type="string" name="GGA"> PE        ! PBEsol exchange-correlation</i>
  <i type="logical" name="LASPH"> T  </i>
 </incar>
 <structure name="primitive_cell" >
  <crystal>
   <varray name="basis" >
    <v>       3.34288600       0.00000000       0.00000000 </v>
    <v>       0.00000000      32.60240900       0.00000000 </v>
    <v>       0.00000000       0.00000000       4.37483100 </v>
   </varray>
   <i name="volume">    476.79592902 </i>
   <varray name="rec_basis" >
    <v>       0.29914272       0.00000000       0.00000000 </v>
    <v>       0.00000000       0.03067258       0.00000000 </v>
    <v>       0.00000000       0.00000000       0.22858026 </v>
   </varray>
  </crystal>
  <varray name="positions" >
   <v>       0.00000000       0.30672600      -0.08107600 </v>
   <v>      -0.50000000       0.30672600      -0.41892400 </v>
   <v>       0.00000000       0.37246700       0.08107600 </v>
   <v>      -0.50000000       0.37246700       0.41892400 </v>
   <v>       0.00000000       0.46712900       0.08107600 </v>
   <v>      -0.50000000       0.46712900       0.41892400 </v>
   <v>       0.00000000      -0.46712900      -0.08107600 </v>
   <v>      -0.50000000      -0.46712900      -0.41892400 </v>
   <v>       0.00000000      -0.37246700      -0.08107600 </v>
   <v>      -0.50000000      -0.37246700      -0.41892400 </v>
   <v>       0.00000000      -0.30672600       0.08107600 </v>
   <v>      -0.50000000      -0.30672600       0.41892400 </v>
  </varray>
 </structure>
 <varray name="primitive_index" >
  <v type="int" >        1 </v>
  <v type="int" >        2 </v>
  <v type="int" >        3 </v>
  <v type="int" >        4 </v>
  <v type="int" >        6 </v>
  <v type="int" >        5 </v>
  <v type="int" >        8 </v>
  <v type="int" >        7 </v>
  <v type="int" >        9 </v>
  <v type="int" >       10 </v>
  <v type="int" >       11 </v>
  <v type="int" >       12 </v>
 </varray>
 <kpoints>
  <generation param="Gamma">
   <v type="int" name="divisions">       8        1        6 </v>
   <v name="usershift">      0.00000000       0.00000000       0.00000000 </v>
   <v name="genvec1">      0.12500000       0.00000000       0.00000000 </v>
   <v name="genvec2">      0.00000000       1.00000000       0.00000000 </v>
   <v name="genvec3">      0.00000000       0.00000000       0.16666667 </v>
   <v name="shift">      0.00000000       0.00000000       0.00000000 </v>
  </generation>
  <varray name="kpointlist" >
   <v>       0.00000000       0.00000000       0.00000000 </v>
   <v>       0.12500000       0.00000000       0.00000000 </v>
   <v>       0.25000000       0.00000000       0.00000000 </v>
   <v>       0.37500000       0.00000000       0.00000000 </v>
   <v>       0.50000000       0.00000000       0.00000000 </v>
   <v>       0.00000000       0.00000000       0.16666667 </v>
   <v>       0.12500000       0.00000000       0.16666667 </v>
   <v>       0.25000000       0.00000000       0.16666667 </v>
   <v>       0.37500000       0.00000000       0.16666667 </v>
   <v>       0.50000000       0.00000000       0.16666667 </v>
   <v>       0.00000000       0.00000000       0.33333333 </v>
   <v>       0.12500000       0.00000000       0.33333333 </v>
   <v>       0.25000000       0.00000000       0.33333333 </v>
   <v>       0.37500000       0.00000000       0.33333333 </v>
   <v>       0.50000000       0.00000000       0.33333333 </v>
   <v>       0.00000000       0.00000000       0.50000000 </v>
   <v>       0.12500000       0.00000000       0.50000000 </v>
   <v>       0.25000000       0.00000000       0.50000000 </v>
   <v>       0.37500000       0.00000000       0.50000000 </v>
   <v>       0.50000000       0.00000000       0.50000000 </v>
  </varray>
  <varray name="weights" >
   <v>       0.02083333 </v>
   <v>       0.04166667 </v>
   <v>       0.04166667 </v>
   <v>       0.04166667 </v>
   <v>       0.02083333 </v>
   <v>       0.04166667 </v>
   <v>       0.08333333 </v>
   <v>       0.08333333 </v>
   <v>       0.08333333 </v>
   <v>       0.04166667 </v>
   <v>       0.04166667 </v>
   <v>       0.08333333 </v>
   <v>       0.08333333 </v>
   <v>       0.08333333 </v>
   <v>       0.04166667 </v>
   <v>       0.02083333 </v>
   <v>       0.04166667 </v>
   <v>       0.04166667 </v>
   <v>       0.04166667 </v>
   <v>       0.02083333 </v>
  </varray>
 </kpoints>
 <parameters>
  <separator name="general" >
   <i type="string" name="SYSTEM">Generic Input</i>
   <i type="logical" name="LCOMPAT"> F  </i>
  </separator>
  <separator name="electronic" >
   <i type="string" name="PREC">normal</i>
   <i name="ENMAX">    450.00000000</i>
   <i name="ENAUG">    342.92400000</i>
   <i name="EDIFF">      0.00001000</i>
   <i type="int" name="IALGO">    38</i>
   <i type="int" name="IWAVPR">    11</i>
   <i type="int" name="NBANDS">    40</i>
   <i name="NELECT">     60.00000000</i>
   <i type="int" name="TURBO">     0</i>
   <i type="int" name="IRESTART">     0</i>
   <i type="int" name="NREBOOT">     0</i>
   <i type="int" name="NMIN">     0</i>
   <i name="EREF">      0.00000000</i>
   <separator name="electronic smearing" >
    <i type="int" name="ISMEAR">     0</i>
    <i name="SIGMA">      0.01000000</i>
    <i name="KSPACING">      0.50000000</i>
    <i type="logical" name="KGAMMA"> T  </i>
   </separator>
   <separator name="electronic projectors" >
    <i type="logical" name="LREAL"> F  </i>
    <v name="ROPT">      0.00000000</v>
    <i type="int" name="LMAXPAW">  -100</i>
    <i type="int" name="LMAXMIX">     2</i>
    <i type="logical" name="NLSPLINE"> F  </i>
   </separator>
   <separator name="electronic startup" >
    <i type="int" name="ISTART">     0</i>
    <i type="int" name="ICHARG">     2</i>
    <i type="int" name="INIWAV">     1</i>
   </separator>
   <separator name="electronic spin" >
    <i type="int" name="ISPIN">     1</i>
    <i type="logical" name="LNONCOLLINEAR"> F  </i>
    <v name="MAGMOM">      1.00000000      1.00000000      1.00000000      1.00000000      1.00000000      1.00000000      1.00000000      1.00000000      1.00000000      1.00000000      1.00000000      1.00000000</v>
    <i name="NUPDOWN">     -1.00000000</i>
    <i type="logical" name="LSORBIT"> F  </i>
    <v name="SAXIS">      0.00000000      0.00000000      1.00000000</v>
    <i type="logical" name="LSPIRAL"> F  </i>
    <v name="QSPIRAL">      0.00000000      0.00000000      0.00000000</v>
    <i type="logical" name="LZEROZ"> F  </i>
   </separator>
   <separator name="electronic exchange-correlation" >
    <i type="logical" name="LASPH"> T  </i>
    <i type="logical" name="LMETAGGA"> F  </i>
   </separator>
   <separator name="electronic convergence" >
    <i type="int" name="NELM">   200</i>
    <i type="int" name="NELMDL">     0</i>
    <i type="int" name="NELMIN">     2</i>
    <i name="ENINI">    450.00000000</i>
    <separator name="electronic convergence detail" >
     <i type="logical" name="LDIAG"> T  </i>
     <i type="logical" name="LSUBROT"> F  </i>
     <i name="WEIMIN">      0.00000000</i>
     <i name="EBREAK">      0.00000006</i>
     <i name="DEPER">      0.30000000</i>
     <i type="int" name="NRMM">     4</i>
     <i name="TIME">      0.40000000</i>
    </separator>
   </separator>
   <separator name="electronic mixer" >
    <i name="AMIX">      0.40000000</i>
    <i name="BMIX">      1.00000000</i>
    <i name="AMIN">      0.10000000</i>
    <i name="AMIX_MAG">      1.60000000</i>
    <i name="BMIX_MAG">      1.00000000</i>
    <separator name="electronic mixer details" >
     <i type="int" name="IMIX">     4</i>
     <i type="logical" name="MIXFIRST"> F  </i>
     <i type="int" name="MAXMIX">   -45</i>
     <i name="WC">    100.00000000</i>
     <i type="int" name="INIMIX">     1</i>
     <i type="int" name="MIXPRE">     1</i>
     <i type="int" name="MREMOVE">     5</i>
    </separator>
   </separator>
   <separator name="electronic dipolcorrection" >
    <i type="logical" name="LDIPOL"> F  </i>
    <i type="logical" name="LMONO"> F  </i>
    <i type="int" name="IDIPOL">     0</i>
    <i name="EPSILON">      1.00000000</i>
    <v name="DIPOL">   -100.00000000   -100.00000000   -100.00000000</v>
    <i name="EFIELD">      0.00000000</i>
   </separator>
  </separator>
  <separator name="grids" >
   <i type="int" name="NGX">    18</i>
   <i type="int" name="NGY">   180</i>
   <i type="int" name="NGZ">    24</i>
   <i type="int" name="NGXF">    36</i>
   <i type="int" name="NGYF">   360</i>
   <i type="int" name="NGZF">    48</i>
   <i type="logical" name="ADDGRID"> F  </i>
  </separator>
  <separator name="ionic" >
   <i type="int" name="NSW">     0</i>
   <i type="int" name="IBRION">    -1</i>
   <i type="int" name="MDALGO">     0</i>
   <i type="int" name="ISIF">     3</i>
   <i name="PSTRESS">      0.00000000</i>
   <i name="EDIFFG">     -0.02000000</i>
   <i type="int" name="NFREE">     1</i>
   <i name="POTIM">      0.50000000</i>
   <i name="SMASS">     -3.00000000</i>
   <i name="SCALEE">      1.00000000</i>
  </separator>
  <separator name="ionic md" >
   <i name="TEBEG">      0.00010000</i>
   <i name="TEEND">      0.00010000</i>
   <i type="int" name="NBLOCK">     1</i>
   <i type="int" name="KBLOCK">     1</i>
   <i type="int" name="NPACO">   256</i>
   <i name="APACO">     16.00000000</i>
  </separator>
  <separator name="symmetry" >
   <i type="int" name="ISYM">     2</i>
   <i name="SYMPREC">      0.00001000</i>
  </separator>
  <separator name="dos" >
   <i type="int" name="LORBIT">    11</i>
   <v name="RWIGS">     -1.00000000</v>
   <i type="int" name="NEDOS">  2000</i>
   <i name="EMIN">     10.00000000</i>
   <i name="EMAX">    -10.00000000</i>
   <i name="EFERMI">      0.00000000</i>
  </separator>
  <separator name="writing" >
   <i type="int" name="NWRITE">     2</i>
   <i type="logical" name="LWAVE"> T  </i>
   <i type="logical" name="LDOWNSAMPLE"> F  </i>
   <i type="logical" name="LCHARG"> T  </i>
   <i type="logical" name="LPARD"> F  </i>
   <i type="logical" name="LVTOT"> F  </i>
   <i type="logical" name="LVHAR"> T  </i>
   <i type="logical" name="LELF"> F  </i>
   <i type="logical" name="LOPTICS"> F  </i>
   <v name="STM">      0.00000000      0.00000000      0.00000000      0.00000000      0.00000000      0.00000000      0.00000000</v>
  </separator>
  <separator name="performance" >
   <i type="int" name="NPAR">     4</i>
   <i type="int" name="NSIM">     4</i>
   <i type="int" name="NBLK">    -1</i>
   <i type="logical" name="LPLANE"> T  </i>
   <i type="logical" name="LSCALAPACK"> T  </i>
   <i type="logical" name="LSCAAWARE"> F  </i>
   <i type="logical" name="LSCALU"> F  </i>
   <i type="logical" name="LASYNC"> F  </i>
   <i type="logical" name="LORBITALREAL"> F  </i>
  </separator>
  <separator name="miscellaneous" >
   <i type="int" name="IDIOT">     3</i>
   <i type="int" name="ISPECIAL">     0</i>
   <i type="logical" name="LMUSIC"> F  </i>
   <v name="POMASS">     30.97400000</v>
   <v name="DARWINR">      0.00000000</v>
   <v name="DARWINV">      1.00000000</v>
   <i type="logical" name="LCORR"> T  </i>
  </separator>
  <i type="logical" name="GGA_COMPAT"> T  </i>
  <i type="logical" name="LBERRY"> F  </i>
  <i type="int" name="ICORELEVEL">     1</i>
  <i type="int" name="CLNT">     1</i>
  <i type="int" name="CLN">     1</i>
  <i type="int" name="CLL">     0</i>
  <i name="CLZ">      0.00000000</i>
  <i type="logical" name="LDAU"> F  </i>
  <i type="int" name="I_CONSTRAINED_M">     0</i>
  <separator name="electronic exchange-correlation" >
   <i type="string" name="GGA">PE</i>
   <i type="int" name="VOSKOWN">     0</i>
   <i type="logical" name="LHFCALC"> F  </i>
   <i type="string" name="PRECFOCK"></i>
   <i type="logical" name="LSYMGRAD"> F  </i>
   <i type="logical" name="LHFONE"> F  </i>
   <i type="logical" name="LRHFCALC"> F  </i>
   <i type="logical" name="LTHOMAS"> F  </i>
   <i type="logical" name="LMODELHF"> F  </i>
   <i name="ENCUT4O">     -1.00000000</i>
   <i type="int" name="EXXOEP">     0</i>
   <i type="int" name="FOURORBIT">     0</i>
   <i name="AEXX">      0.00000000</i>
   <i name="HFALPHA">      0.00000000</i>
   <i name="MCALPHA">      0.00000000</i>
   <i name="ALDAX">      1.00000000</i>
   <i name="AGGAX">      1.00000000</i>
   <i name="ALDAC">      1.00000000</i>
   <i name="AGGAC">      1.00000000</i>
   <i type="int" name="NKREDX">     1</i>
   <i type="int" name="NKREDY">     1</i>
   <i type="int" name="NKREDZ">     1</i>
   <i type="logical" name="SHIFTRED"> F  </i>
   <i type="logical" name="ODDONLY"> F  </i>
   <i type="logical" name="EVENONLY"> F  </i>
   <i type="int" name="LMAXFOCK">     0</i>
   <i type="int" name="NMAXFOCKAE">     0</i>
   <i type="logical" name="LFOCKAEDFT"> F  </i>
   <i name="HFSCREEN">      0.00000000</i>
   <i name="HFSCREENC">      0.00000000</i>
   <i type="int" name="NBANDSGWLOW">     0</i>
  </separator>
  <separator name="vdW DFT" >
   <i type="logical" name="LUSE_VDW"> F  </i>
   <i name="Zab_VDW">     -0.84910000</i>
   <i name="PARAM1">      0.12340000</i>
   <i name="PARAM2">      1.00000000</i>
   <i name="PARAM3">      0.00000000</i>
  </separator>
  <separator name="model GW" >
   <i type="int" name="MODEL_GW">     0</i>
   <i name="MODEL_EPS0">     23.83979645</i>
   <i name="MODEL_ALPHA">      1.00000000</i>
  </separator>
  <separator name="linear response parameters" >
   <i type="logical" name="LEPSILON"> F  </i>
   <i type="logical" name="LRPA"> F  </i>
   <i type="logical" name="LNABLA"> F  </i>
   <i type="logical" name="LVEL"> F  </i>
   <i type="int" name="KINTER">     0</i>
   <i name="CSHIFT">      0.10000000</i>
   <i name="OMEGAMAX">     -1.00000000</i>
   <i name="DEG_THRESHOLD">      0.00200000</i>
   <i name="RTIME">     -0.10000000</i>
   <i name="WPLASMAI">      0.00000000</i>
   <v name="DFIELD">      0.00000000      0.00000000      0.00000000</v>
   <v name="WPLASMA">      0.00000000      0.00000000      0.00000000      0.00000000      0.00000000      0.00000000      0.00000000      0.00000000      0.00000000</v>
  </separator>
  <separator name="orbital magnetization" >
   <i type="logical" name="NUCIND"> F  </i>
   <v name="MAGPOS">      0.00000000      0.00000000      0.00000000</v>
   <i type="logical" name="LNICSALL"> T  </i>
   <i type="logical" name="ORBITALMAG"> F  </i>
   <i type="logical" name="LMAGBLOCH"> F  </i>
   <i type="logical" name="LCHIMAG"> F  </i>
   <i type="logical" name="LGAUGE"> T  </i>
   <i type="int" name="MAGATOM">     0</i>
   <v name="MAGDIPOL">      0.00000000      0.00000000      0.00000000</v>
   <v name="AVECCONST">      0.00000000      0.00000000      0.00000000</v>
  </separator>
  <separator name="response functions" >
   <i type="logical" name="LADDER"> F  </i>
   <i type="logical" name="LRPAFORCE"> F  </i>
   <i type="logical" name="LFXC"> F  </i>
   <i type="logical" name="LHARTREE"> T  </i>
   <i type="int" name="IBSE">     0</i>
   <v type="int" name="KPOINT">    -1     0     0     0</v>
   <i type="logical" name="LTCTE"> F  </i>
   <i type="logical" name="LTETE"> F  </i>
   <i type="logical" name="LTRIPLET"> F  </i>
   <i type="logical" name="LFXCEPS"> F  </i>
   <i type="logical" name="LFXHEG"> F  </i>
   <i type="int" name="NATURALO">     2</i>
   <i type="logical" name="L2ORDER"> F  </i>
   <i type="logical" name="LMP2LT"> F  </i>
   <i type="logical" name="LUSEW"> F  </i>
   <i name="ENCUTGW">     -2.00000000</i>
   <i name="ENCUTGWSOFT">     -2.00000000</i>
   <i name="ENCUTLF">     -1.00000000</i>
   <i type="int" name="LMAXMP2">    -1</i>
   <i name="SCISSOR">      0.00000000</i>
   <i type="int" name="NOMEGA">     0</i>
   <i type="int" name="NOMEGAR">     0</i>
   <i type="int" name="NBANDSGW">    -1</i>
   <i type="int" name="NBANDSO">    -1</i>
   <i type="int" name="NBANDSV">    -1</i>
   <i type="int" name="NELM">   200</i>
   <i type="int" name="NELMHF">     1</i>
   <i type="int" name="DIM">     3</i>
   <i type="int" name="ANTIRES">     0</i>
   <i name="OMEGAMAX">    -30.00000000</i>
   <i name="OMEGAMIN">    -30.00000000</i>
   <i name="OMEGATL">   -200.00000000</i>
   <i type="int" name="OMEGAGRID">   140</i>
   <i name="CSHIFT">     -0.10000000</i>
   <i type="logical" name="SELFENERGY"> F  </i>
   <i type="logical" name="LSPECTRAL"> F  </i>
   <i type="logical" name="LSPECTRALGW"> F  </i>
   <i type="logical" name="LSINGLES"> F  </i>
   <i type="logical" name="LFERMIGW"> F  </i>
   <i type="logical" name="ODDONLYGW"> F  </i>
   <i type="logical" name="EVENONLYGW"> F  </i>
   <i type="int" name="NKREDLFX">     1</i>
   <i type="int" name="NKREDLFY">     1</i>
   <i type="int" name="NKREDLFZ">     1</i>
   <i type="int" name="MAXMEM">  2800</i>
   <i type="int" name="TELESCOPE">     0</i>
   <i type="int" name="TAUPAR">     1</i>
   <i type="int" name="OMEGAPAR">    -1</i>
   <i name="LAMBDA">      1.00000000</i>
  </separator>
  <separator name="External order field" >
   <i name="OFIELD_KAPPA">      0.00000000</i>
   <v name="OFIELD_K">      0.00000000      0.00000000      0.00000000</v>
   <i name="OFIELD_Q6_NEAR">      0.00000000</i>
   <i name="OFIELD_Q6_FAR">      0.00000000</i>
   <i name="OFIELD_A">      0.00000000</i>
  </separator>
 </parameters>
 <atominfo>
  <atoms>      12 </atoms>
  <types>       1 </types>
  <array name="atoms" >
   <dimension dim="1">ion</dimension>
   <field type="string">element</field>
   <field type="int">atomtype</field>
   <set>
    <rc><c>P </c><c>   1</c></rc>
    <rc><c>P </c><c>   1</c></rc>
    <rc><c>P </c><c>   1</c></rc>
    <rc><c>P </c><c>   1</c></rc>
    <rc><c>P </c><c>   1</c></rc>
    <rc><c>P </c><c>   1</c></rc>
    <rc><c>P </c><c>   1</c></rc>
    <rc><c>P </c><c>   1</c></rc>
    <rc><c>P </c><c>   1</c></rc>
    <rc><c>P </c><c>   1</c></rc>
    <rc><c>P </c><c>   1</c></rc>
    <rc><c>P </c><c>   1</c></rc>
   </set>
  </array>
  <array name="atomtypes" >
   <dimension dim="1">type</dimension>
   <field type="int">atomspertype</field>
   <field type="string">element</field>
   <field>mass</field>
   <field>valence</field>
   <field type="string">pseudopotential</field>
   <set>
    <rc><c>  12</c><c>P </c><c>     30.97400000</c><c>      5.00000000</c><c>  PAW_PBE P 06Sep2000                   </c></rc>
   </set>
  </array>
 </atominfo>
 <structure name="initialpos" >
  <crystal>
   <varray name="basis" >
    <v>       3.34288600       0.00000000       0.00000000 </v>
    <v>       0.00000000      32.60240900       0.00000000 </v>
    <v>       0.00000000       0.00000000       4.37483100 </v>
   </varray>
   <i name="volume">    476.79592902 </i>
   <varray name="rec_basis" >
    <v>       0.29914272       0.00000000       0.00000000 </v>
    <v>       0.00000000       0.03067258       0.00000000 </v>
    <v>       0.00000000       0.00000000       0.22858026 </v>
   </varray>
  </crystal>
  <varray name="positions" >
   <v>       0.00000000       0.30672600       0.91892400 </v>
   <v>       0.50000000       0.30672600       0.58107600 </v>
   <v>       0.00000000       0.37246700       0.08107600 </v>
   <v>       0.50000000       0.37246700       0.41892400 </v>
   <v>       0.50000000       0.46712900       0.41892400 </v>
   <v>       0.00000000       0.46712900       0.08107600 </v>
   <v>       0.50000000       0.53287100       0.58107600 </v>
   <v>       0.00000000       0.53287100       0.91892400 </v>
   <v>       0.00000000       0.62753300       0.91892400 </v>
   <v>       0.50000000       0.62753300       0.58107600 </v>
   <v>       0.00000000       0.69327400       0.08107600 </v>
   <v>       0.50000000       0.69327400       0.41892400 </v>
  </varray>
 </structure>
 <calculation>
  <scstep>
   <time name="dav">    0.92    0.93</time>
   <time name="total">    1.03    1.03</time>
   <energy>
    <i name="alphaZ">     30.28014394 </i>
    <i name="ewald">  14984.29168251 </i>
    <i name="hartreedc"> -16938.86341412 </i>
    <i name="XCdc">     40.54558770 </i>
    <i name="pawpsdc">   1677.12035881 </i>
    <i name="pawaedc">  -1579.18296132 </i>
    <i name="eentropy">     -0.00037010 </i>
    <i name="bandstr">     29.52392932 </i>
    <i name="atom">   2112.49373795 </i>
    <i name="e_fr_energy">    356.20869470 </i>
    <i name="e_wo_entrp">    356.20906480 </i>
    <i name="e_0_energy">    356.20887975 </i>
   </energy>
  </scstep>
  <scstep>
   <time name="dav">    1.24    1.24</time>
   <time name="total">    1.24    1.24</time>
   <energy>
    <i name="e_fr_energy">    -23.70328796 </i>
    <i name="e_wo_entrp">    -23.70291204 </i>
    <i name="e_0_energy">    -23.70310000 </i>
   </energy>
  </scstep>
  <scstep>
   <time name="dav">    1.06    1.06</time>
   <time name="total">    1.06    1.06</time>
   <energy>
    <i name="e_fr_energy">    -62.77393130 </i>
    <i name="e_wo_entrp">    -62.77393130 </i>
    <i name="e_0_energy">    -62.77393130 </i>
   </energy>
  </scstep>
  <scstep>
   <time name="dav">    1.29    1.30</time>
   <time name="total">    1.29    1.30</time>
   <energy>
    <i name="e_fr_energy">    -64.23422098 </i>
    <i name="e_wo_entrp">    -64.23422098 </i>
    <i name="e_0_energy">    -64.23422098 </i>
   </energy>
  </scstep>
  <scstep>
   <time name="dav">    1.28    1.28</time>
   <time name="total">    1.33    1.34</time>
   <energy>
    <i name="e_fr_energy">    -64.26786792 </i>
    <i name="e_wo_entrp">    -64.26786792 </i>
    <i name="e_0_energy">    -64.26786792 </i>
   </energy>
  </scstep>
  <scstep>
   <time name="dav">    1.11    1.11</time>
   <time name="total">    1.25    1.25</time>
   <energy>
    <i name="e_fr_energy">    -63.92941357 </i>
    <i name="e_wo_entrp">    -63.92941357 </i>
    <i name="e_0_energy">    -63.92941357 </i>
   </energy>
  </scstep>
  <scstep>
   <time name="dav">    1.11    1.11</time>
   <time name="total">    1.25    1.25</time>
   <energy>
    <i name="e_fr_energy">    -63.77909616 </i>
    <i name="e_wo_entrp">    -63.77909616 </i>
    <i name="e_0_energy">    -63.77909616 </i>
   </energy>
  </scstep>
  <scstep>
   <time name="dav">    1.12    1.13</time>
   <time name="total">    1.26    1.27</time>
   <energy>
    <i name="e_fr_energy">    -63.78013569 </i>
    <i name="e_wo_entrp">    -63.78013569 </i>
    <i name="e_0_energy">    -63.78013569 </i>
   </energy>
  </scstep>
  <scstep>
   <time name="dav">    1.26    1.27</time>
   <time name="total">    1.40    1.41</time>
   <energy>
    <i name="e_fr_energy">    -63.78009330 </i>
    <i name="e_wo_entrp">    -63.78009330 </i>
    <i name="e_0_energy">    -63.78009330 </i>
   </energy>
  </scstep>
  <scstep>
   <time name="dav">    1.10    1.10</time>
   <time name="total">    1.23    1.24</time>
   <energy>
    <i name="e_fr_energy">    -63.77991490 </i>
    <i name="e_wo_entrp">    -63.77991490 </i>
    <i name="e_0_energy">    -63.77991490 </i>
   </energy>
  </scstep>
  <scstep>
   <time name="dav">    1.16    1.18</time>
   <time name="total">    1.30    1.32</time>
   <energy>
    <i name="e_fr_energy">    -63.77981225 </i>
    <i name="e_wo_entrp">    -63.77981225 </i>
    <i name="e_0_energy">    -63.77981225 </i>
   </energy>
  </scstep>
  <scstep>
   <time name="dav">    1.07    1.09</time>
   <time name="total">    1.21    1.23</time>
   <energy>
    <i name="e_fr_energy">    -63.77986846 </i>
    <i name="e_wo_entrp">    -63.77986846 </i>
    <i name="e_0_energy">    -63.77986846 </i>
   </energy>
  </scstep>
  <scstep>
   <time name="dav">    1.08    1.08</time>
   <time name="total">    1.22    1.22</time>
   <energy>
    <i name="e_fr_energy">    -63.78003050 </i>
    <i name="e_wo_entrp">    -63.78003050 </i>
    <i name="e_0_energy">    -63.78003050 </i>
   </energy>
  </scstep>
  <scstep>
   <time name="dav">    0.98    0.98</time>
   <time name="total">    1.12    1.12</time>
   <energy>
    <i name="e_fr_energy">    -63.78014602 </i>
    <i name="e_wo_entrp">    -63.78014602 </i>
    <i name="e_0_energy">    -63.78014602 </i>
   </energy>
  </scstep>
  <scstep>
   <time name="dav">    0.86    0.87</time>
   <time name="total">    1.00    1.01</time>
   <energy>
    <i name="e_fr_energy">    -63.78029133 </i>
    <i name="e_wo_entrp">    -63.78029133 </i>
    <i name="e_0_energy">    -63.78029133 </i>
   </energy>
  </scstep>
  <scstep>
   <time name="dav">    0.92    0.92</time>
   <time name="total">    1.06    1.06</time>
   <energy>
    <i name="e_fr_energy">    -63.78045187 </i>
    <i name="e_wo_entrp">    -63.78045187 </i>
    <i name="e_0_energy">    -63.78045187 </i>
   </energy>
  </scstep>
  <scstep>
   <time name="dav">    0.81    0.81</time>
   <time name="total">    0.94    0.95</time>
   <energy>
    <i name="e_fr_energy">    -63.78048340 </i>
    <i name="e_wo_entrp">    -63.78048340 </i>
    <i name="e_0_energy">    -63.78048340 </i>
   </energy>
  </scstep>
  <scstep>
   <time name="dav">    0.81    0.81</time>
   <time name="total">    0.95    0.95</time>
   <energy>
    <i name="e_fr_energy">    -63.78052259 </i>
    <i name="e_wo_entrp">    -63.78052259 </i>
    <i name="e_0_energy">    -63.78052259 </i>
   </energy>
  </scstep>
  <scstep>
   <time name="dav">    0.78    0.79</time>
   <time name="total">    0.95    0.96</time>
   <energy>
    <i name="alphaZ">     30.28014394 </i>
    <i name="ewald">  14984.29168251 </i>
    <i name="hartreedc"> -16975.88823812 </i>
    <i name="XCdc">     43.39550893 </i>
    <i name="pawpsdc">   6387.59293158 </i>
    <i name="pawaedc">  -6290.58183720 </i>
    <i name="eentropy">     -0.00000000 </i>
    <i name="bandstr">   -355.36446071 </i>
    <i name="atom">   2112.49373795 </i>
    <i name="e_fr_energy">    -63.78053111 </i>
    <i name="e_wo_entrp">    -63.78053111 </i>
    <i name="e_0_energy">    -63.78053111 </i>
   </energy>
  </scstep>
  <structure>
   <crystal>
    <varray name="basis" >
     <v>       3.34288600       0.00000000       0.00000000 </v>
     <v>       0.00000000      32.60240900       0.00000000 </v>
     <v>       0.00000000       0.00000000       4.37483100 </v>
    </varray>
    <i name="volume">    476.79592902 </i>
    <varray name="rec_basis" >
     <v>       0.29914272       0.00000000       0.00000000 </v>
     <v>       0.00000000       0.03067258       0.00000000 </v>
     <v>       0.00000000       0.00000000       0.22858026 </v>
    </varray>
   </crystal>
   <varray name="positions" >
    <v>       0.00000000       0.30672600       0.91892400 </v>
    <v>       0.50000000       0.30672600       0.58107600 </v>
    <v>       0.00000000       0.37246700       0.08107600 </v>
    <v>       0.50000000       0.37246700       0.41892400 </v>
    <v>       0.50000000       0.46712900       0.41892400 </v>
    <v>       0.00000000       0.46712900       0.08107600 </v>
    <v>       0.50000000       0.53287100       0.58107600 </v>
    <v>       0.00000000       0.53287100       0.91892400 </v>
    <v>       0.00000000       0.62753300       0.91892400 </v>
    <v>       0.50000000       0.62753300       0.58107600 </v>
    <v>       0.00000000       0.69327400       0.08107600 </v>
    <v>       0.50000000       0.69327400       0.41892400 </v>
   </varray>
  </structure>
  <varray name="forces" >
   <v>       0.00000000      -0.08515774      -0.09520644 </v>
   <v>      -0.00000000      -0.08515774       0.09520644 </v>
   <v>       0.00000000      -0.31456735      -0.06902095 </v>
   <v>       0.00000000      -0.31456735       0.06902095 </v>
   <v>       0.00000000       0.21576951       0.06900401 </v>
   <v>       0.00000000       0.21576951      -0.06900401 </v>
   <v>       0.00000000      -0.21576951      -0.06900401 </v>
   <v>       0.00000000      -0.21576951       0.06900401 </v>
   <v>       0.00000000       0.31456735       0.06902095 </v>
   <v>       0.00000000       0.31456735      -0.06902095 </v>
   <v>       0.00000000       0.08515774       0.09520644 </v>
   <v>       0.00000000       0.08515774      -0.09520644 </v>
  </varray>
  <varray name="stress" >
   <v>      -5.55680511       0.00000000       0.00000000 </v>
   <v>       0.00000000      21.53016946       0.00000000 </v>
   <v>       0.00000000       0.00000000       2.60343415 </v>
  </varray>
  <energy>
   <i name="e_fr_energy">    -65.86617766 </i>
   <i name="e_wo_entrp">    -65.86617766 </i>
   <i name="e_0_energy">     -0.00000000 </i>
  </energy>
  <time name="totalsc">   24.36   24.48</time>
  <eigenvalues>
   <array>
    <dimension dim="1">band</dimension>
    <dimension dim="2">kpoint</dimension>
    <dimension dim="3">spin</dimension>
    <field>eigene</field>
    <field>occ</field>
    <set>
     <set comment="spin 1">
      <set comment="kpoint 1">
       <r>  -14.9545    1.0000 </r>
       <r>  -14.7781    1.0000 </r>
       <r>  -14.6821    1.0000 </r>
       <r>  -12.5627    1.0000 </r>
       <r>  -12.1859    1.0000 </r>
       <r>  -11.9322    1.0000 </r>
       <r>   -8.6835    1.0000 </r>
       <r>   -8.5521    1.0000 </r>
       <r>   -8.4963    1.0000 </r>
       <r>   -6.3003    1.0000 </r>
       <r>   -5.6067    1.0000 </r>
       <r>   -4.8707    1.0000 </r>
       <r>   -4.7833    1.0000 </r>
       <r>   -4.5992    1.0000 </r>
       <r>   -4.2762    1.0000 </r>
       <r>   -4.2131    1.0000 </r>
       <r>   -3.9859    1.0000 </r>
       <r>   -3.8195    1.0000 </r>
       <r>   -3.4883    1.0000 </r>
       <r>   -3.3360    1.0000 </r>
       <r>   -3.2644    1.0000 </r>
       <r>   -2.0680    1.0000 </r>
       <r>   -1.8622    1.0000 </r>
       <r>   -1.6312    1.0000 </r>
       <r>   -1.5237    1.0000 </r>
       <r>   -1.5167    1.0000 </r>
       <r>   -0.8970    1.0000 </r>
       <r>   -0.5887    1.0000 </r>
       <r>    0.1380    1.0000 </r>
       <r>    0.3218    1.0000 </r>
       <r>    1.0455    0.0000 </r>
       <r>    1.3363    0.0000 </r>
       <r>    1.3445    0.0000 </r>
       <r>    1.5971    0.0000 </r>
       <r>    2.0087    0.0000 </r>
       <r>    2.5508    0.0000 </r>
       <r>    2.5974    0.0000 </r>
       <r>    2.8830    0.0000 </r>
       <r>    3.0365    0.0000 </r>
       <r>    3.6295    0.0000 </r>
      </set>
      <set comment="kpoint 2">
       <r>  -14.7723    1.0000 </r>
       <r>  -14.5964    1.0000 </r>
       <r>  -14.5009    1.0000 </r>
       <r>  -12.3740    1.0000 </r>
       <r>  -11.9974    1.0000 </r>
       <r>  -11.7435    1.0000 </r>
       <r>   -8.8484    1.0000 </r>
       <r>   -8.7151    1.0000 </r>
       <r>   -8.6580    1.0000 </r>
       <r>   -6.1450    1.0000 </r>
       <r>   -5.4570    1.0000 </r>
       <r>   -5.0866    1.0000 </r>
       <r>   -4.7362    1.0000 </r>
       <r>   -4.6075    1.0000 </r>
       <r>   -4.4426    1.0000 </r>
       <r>   -4.2477    1.0000 </r>
       <r>   -4.1889    1.0000 </r>
       <r>   -4.0873    1.0000 </r>
       <r>   -4.0624    1.0000 </r>
       <r>   -4.0085    1.0000 </r>
       <r>   -3.8293    1.0000 </r>
       <r>   -2.5842    1.0000 </r>
       <r>   -2.3211    1.0000 </r>
       <r>   -2.1493    1.0000 </r>
       <r>   -1.9829    1.0000 </r>
       <r>   -1.4405    1.0000 </r>
       <r>   -0.8134    1.0000 </r>
       <r>   -0.7087    1.0000 </r>
       <r>    0.2272    1.0000 </r>
       <r>    0.3112    1.0000 </r>
       <r>    1.0957    0.0000 </r>
       <r>    1.4987    0.0000 </r>
       <r>    2.6965    0.0000 </r>
       <r>    2.7025    0.0000 </r>
       <r>    2.7306    0.0000 </r>
       <r>    2.9419    0.0000 </r>
       <r>    2.9460    0.0000 </r>
       <r>    2.9745    0.0000 </r>
       <r>    3.2038    0.0000 </r>
       <r>    3.7418    0.0000 </r>
      </set>
      <set comment="kpoint 3">
       <r>  -14.2310    1.0000 </r>
       <r>  -14.0566    1.0000 </r>
       <r>  -13.9629    1.0000 </r>
       <r>  -11.8109    1.0000 </r>
       <r>  -11.4344    1.0000 </r>
       <r>  -11.1802    1.0000 </r>
       <r>   -9.5515    1.0000 </r>
       <r>   -9.4079    1.0000 </r>
       <r>   -9.3431    1.0000 </r>
       <r>   -6.3520    1.0000 </r>
       <r>   -5.9419    1.0000 </r>
       <r>   -5.6998    1.0000 </r>
       <r>   -5.6277    1.0000 </r>
       <r>   -5.0360    1.0000 </r>
       <r>   -5.0120    1.0000 </r>
       <r>   -4.8457    1.0000 </r>
       <r>   -4.7678    1.0000 </r>
       <r>   -4.3789    1.0000 </r>
       <r>   -3.9980    1.0000 </r>
       <r>   -3.6384    1.0000 </r>
       <r>   -3.3821    1.0000 </r>
       <r>   -2.9525    1.0000 </r>
       <r>   -2.6322    1.0000 </r>
       <r>   -2.3302    1.0000 </r>
       <r>   -1.8808    1.0000 </r>
       <r>   -1.3489    1.0000 </r>
       <r>   -1.1588    1.0000 </r>
       <r>   -0.7348    1.0000 </r>
       <r>   -0.2339    1.0000 </r>
       <r>    0.6501    1.0000 </r>
       <r>    0.8199    0.0000 </r>
       <r>    1.3677    0.0000 </r>
       <r>    1.6388    0.0000 </r>
       <r>    1.8131    0.0000 </r>
       <r>    2.0278    0.0000 </r>
       <r>    3.1849    0.0000 </r>
       <r>    3.2212    0.0000 </r>
       <r>    3.4934    0.0000 </r>
       <r>    3.5587    0.0000 </r>
       <r>    3.7438    0.0000 </r>
      </set>
      <set comment="kpoint 4">
       <r>  -13.3491    1.0000 </r>
       <r>  -13.1777    1.0000 </r>
       <r>  -13.0872    1.0000 </r>
       <r>  -10.8831    1.0000 </r>
       <r>  -10.8088    1.0000 </r>
       <r>  -10.6517    1.0000 </r>
       <r>  -10.5750    1.0000 </r>
       <r>  -10.5064    1.0000 </r>
       <r>  -10.2510    1.0000 </r>
       <r>   -8.0492    1.0000 </r>
       <r>   -7.6639    1.0000 </r>
       <r>   -7.3924    1.0000 </r>
       <r>   -5.0658    1.0000 </r>
       <r>   -4.9531    1.0000 </r>
       <r>   -4.7726    1.0000 </r>
       <r>   -4.6880    1.0000 </r>
       <r>   -4.4918    1.0000 </r>
       <r>   -4.0304    1.0000 </r>
       <r>   -3.3867    1.0000 </r>
       <r>   -3.0848    1.0000 </r>
       <r>   -2.7699    1.0000 </r>
       <r>   -2.7493    1.0000 </r>
       <r>   -2.5487    1.0000 </r>
       <r>   -2.1714    1.0000 </r>
       <r>   -2.0943    1.0000 </r>
       <r>   -1.8206    1.0000 </r>
       <r>   -1.6184    1.0000 </r>
       <r>   -1.0149    1.0000 </r>
       <r>   -0.9997    1.0000 </r>
       <r>   -0.1701    1.0000 </r>
       <r>    1.0840    0.0000 </r>
       <r>    1.4081    0.0000 </r>
       <r>    1.5660    0.0000 </r>
       <r>    1.7011    0.0000 </r>
       <r>    1.7106    0.0000 </r>
       <r>    2.0810    0.0000 </r>
       <r>    2.2144    0.0000 </r>
       <r>    2.3649    0.0000 </r>
       <r>    2.3951    0.0000 </r>
       <r>    2.7365    0.0000 </r>
      </set>
      <set comment="kpoint 5">
       <r>  -12.1711    1.0000 </r>
       <r>  -12.1711    1.0000 </r>
       <r>  -12.0050    1.0000 </r>
       <r>  -12.0050    1.0000 </r>
       <r>  -11.9198    1.0000 </r>
       <r>  -11.9198    1.0000 </r>
       <r>   -9.6121    1.0000 </r>
       <r>   -9.6121    1.0000 </r>
       <r>   -9.2338    1.0000 </r>
       <r>   -9.2338    1.0000 </r>
       <r>   -8.9745    1.0000 </r>
       <r>   -8.9745    1.0000 </r>
       <r>   -4.6716    1.0000 </r>
       <r>   -4.6716    1.0000 </r>
       <r>   -4.3611    1.0000 </r>
       <r>   -4.3611    1.0000 </r>
       <r>   -4.1965    1.0000 </r>
       <r>   -4.1965    1.0000 </r>
       <r>   -2.8925    1.0000 </r>
       <r>   -2.8925    1.0000 </r>
       <r>   -2.8697    1.0000 </r>
       <r>   -2.8697    1.0000 </r>
       <r>   -2.2103    1.0000 </r>
       <r>   -2.2103    1.0000 </r>
       <r>   -2.1696    1.0000 </r>
       <r>   -2.1696    1.0000 </r>
       <r>   -1.5907    1.0000 </r>
       <r>   -1.5907    1.0000 </r>
       <r>   -0.9114    1.0000 </r>
       <r>   -0.9114    1.0000 </r>
       <r>    1.2279    0.0000 </r>
       <r>    1.2279    0.0000 </r>
       <r>    1.6121    0.0000 </r>
       <r>    1.6121    0.0000 </r>
       <r>    1.9277    0.0000 </r>
       <r>    1.9277    0.0000 </r>
       <r>    1.9791    0.0000 </r>
       <r>    1.9791    0.0000 </r>
       <r>    2.2772    0.0000 </r>
       <r>    2.2772    0.0000 </r>
      </set>
      <set comment="kpoint 6">
       <r>  -14.8039    1.0000 </r>
       <r>  -14.6257    1.0000 </r>
       <r>  -14.5267    1.0000 </r>
       <r>  -12.6615    1.0000 </r>
       <r>  -12.3194    1.0000 </r>
       <r>  -12.1039    1.0000 </r>
       <r>   -8.9740    1.0000 </r>
       <r>   -8.7790    1.0000 </r>
       <r>   -8.6498    1.0000 </r>
       <r>   -6.7147    1.0000 </r>
       <r>   -6.1537    1.0000 </r>
       <r>   -5.6788    1.0000 </r>
       <r>   -4.9475    1.0000 </r>
       <r>   -4.3466    1.0000 </r>
       <r>   -3.7953    1.0000 </r>
       <r>   -3.7050    1.0000 </r>
       <r>   -3.3695    1.0000 </r>
       <r>   -3.3026    1.0000 </r>
       <r>   -3.2208    1.0000 </r>
       <r>   -3.2163    1.0000 </r>
       <r>   -3.1421    1.0000 </r>
       <r>   -1.9216    1.0000 </r>
       <r>   -1.7014    1.0000 </r>
       <r>   -1.5974    1.0000 </r>
       <r>   -1.5951    1.0000 </r>
       <r>   -1.3230    1.0000 </r>
       <r>   -0.7233    1.0000 </r>
       <r>   -0.6195    1.0000 </r>
       <r>   -0.0832    1.0000 </r>
       <r>    0.4474    1.0000 </r>
       <r>    0.8659    0.0000 </r>
       <r>    1.5781    0.0000 </r>
       <r>    1.6947    0.0000 </r>
       <r>    2.0254    0.0000 </r>
       <r>    2.0433    0.0000 </r>
       <r>    2.3496    0.0000 </r>
       <r>    2.5486    0.0000 </r>
       <r>    2.7454    0.0000 </r>
       <r>    3.3579    0.0000 </r>
       <r>    3.3895    0.0000 </r>
      </set>
      <set comment="kpoint 7">
       <r>  -14.6228    1.0000 </r>
       <r>  -14.4451    1.0000 </r>
       <r>  -14.3467    1.0000 </r>
       <r>  -12.4779    1.0000 </r>
       <r>  -12.1373    1.0000 </r>
       <r>  -11.9232    1.0000 </r>
       <r>   -9.0411    1.0000 </r>
       <r>   -8.8495    1.0000 </r>
       <r>   -8.7258    1.0000 </r>
       <r>   -6.6297    1.0000 </r>
       <r>   -6.0920    1.0000 </r>
       <r>   -5.6394    1.0000 </r>
       <r>   -5.0149    1.0000 </r>
       <r>   -4.7119    1.0000 </r>
       <r>   -4.4331    1.0000 </r>
       <r>   -4.3545    1.0000 </r>
       <r>   -4.2057    1.0000 </r>
       <r>   -3.5820    1.0000 </r>
       <r>   -3.2852    1.0000 </r>
       <r>   -2.9968    1.0000 </r>
       <r>   -2.9004    1.0000 </r>
       <r>   -2.8428    1.0000 </r>
       <r>   -2.5999    1.0000 </r>
       <r>   -2.3865    1.0000 </r>
       <r>   -1.5822    1.0000 </r>
       <r>   -1.3329    1.0000 </r>
       <r>   -0.7600    1.0000 </r>
       <r>   -0.6195    1.0000 </r>
       <r>   -0.1370    1.0000 </r>
       <r>    0.4725    1.0000 </r>
       <r>    0.9748    0.0000 </r>
       <r>    2.0889    0.0000 </r>
       <r>    2.5102    0.0000 </r>
       <r>    2.7102    0.0000 </r>
       <r>    2.8669    0.0000 </r>
       <r>    2.8762    0.0000 </r>
       <r>    3.0649    0.0000 </r>
       <r>    3.2770    0.0000 </r>
       <r>    3.3798    0.0000 </r>
       <r>    3.7041    0.0000 </r>
      </set>
      <set comment="kpoint 8">
       <r>  -14.0855    1.0000 </r>
       <r>  -13.9096    1.0000 </r>
       <r>  -13.8130    1.0000 </r>
       <r>  -11.9389    1.0000 </r>
       <r>  -11.6065    1.0000 </r>
       <r>  -11.4008    1.0000 </r>
       <r>   -9.4966    1.0000 </r>
       <r>   -9.3067    1.0000 </r>
       <r>   -9.1901    1.0000 </r>
       <r>   -6.8123    1.0000 </r>
       <r>   -6.3913    1.0000 </r>
       <r>   -6.0598    1.0000 </r>
       <r>   -5.5756    1.0000 </r>
       <r>   -5.4508    1.0000 </r>
       <r>   -5.3032    1.0000 </r>
       <r>   -5.2129    1.0000 </r>
       <r>   -4.7691    1.0000 </r>
       <r>   -4.2716    1.0000 </r>
       <r>   -3.4971    1.0000 </r>
       <r>   -3.1911    1.0000 </r>
       <r>   -2.9310    1.0000 </r>
       <r>   -2.8130    1.0000 </r>
       <r>   -2.5447    1.0000 </r>
       <r>   -2.5018    1.0000 </r>
       <r>   -1.7913    1.0000 </r>
       <r>   -1.7056    1.0000 </r>
       <r>   -1.1773    1.0000 </r>
       <r>   -0.8737    1.0000 </r>
       <r>   -0.4555    1.0000 </r>
       <r>    0.3277    1.0000 </r>
       <r>    1.1949    0.0000 </r>
       <r>    1.8655    0.0000 </r>
       <r>    2.1629    0.0000 </r>
       <r>    2.2751    0.0000 </r>
       <r>    2.4422    0.0000 </r>
       <r>    2.6092    0.0000 </r>
       <r>    2.9593    0.0000 </r>
       <r>    3.2209    0.0000 </r>
       <r>    3.5033    0.0000 </r>
       <r>    4.0333    0.0000 </r>
      </set>
      <set comment="kpoint 9">
       <r>  -13.2148    1.0000 </r>
       <r>  -13.0424    1.0000 </r>
       <r>  -12.9496    1.0000 </r>
       <r>  -11.2311    1.0000 </r>
       <r>  -10.9906    1.0000 </r>
       <r>  -10.8695    1.0000 </r>
       <r>  -10.4076    1.0000 </r>
       <r>  -10.1271    1.0000 </r>
       <r>   -9.9300    1.0000 </r>
       <r>   -8.1597    1.0000 </r>
       <r>   -7.7909    1.0000 </r>
       <r>   -7.5371    1.0000 </r>
       <r>   -5.5256    1.0000 </r>
       <r>   -5.3231    1.0000 </r>
       <r>   -5.1431    1.0000 </r>
       <r>   -5.0481    1.0000 </r>
       <r>   -4.5233    1.0000 </r>
       <r>   -4.1275    1.0000 </r>
       <r>   -3.4312    1.0000 </r>
       <r>   -3.2100    1.0000 </r>
       <r>   -3.0215    1.0000 </r>
       <r>   -2.8410    1.0000 </r>
       <r>   -2.7820    1.0000 </r>
       <r>   -2.4018    1.0000 </r>
       <r>   -2.2865    1.0000 </r>
       <r>   -1.8437    1.0000 </r>
       <r>   -1.5552    1.0000 </r>
       <r>   -1.0372    1.0000 </r>
       <r>   -0.8006    1.0000 </r>
       <r>   -0.0559    1.0000 </r>
       <r>    1.3348    0.0000 </r>
       <r>    1.7778    0.0000 </r>
       <r>    1.7925    0.0000 </r>
       <r>    2.0902    0.0000 </r>
       <r>    2.1471    0.0000 </r>
       <r>    2.4201    0.0000 </r>
       <r>    2.4627    0.0000 </r>
       <r>    2.6238    0.0000 </r>
       <r>    2.8014    0.0000 </r>
       <r>    2.9105    0.0000 </r>
      </set>
      <set comment="kpoint 10">
       <r>  -12.0778    1.0000 </r>
       <r>  -12.0778    1.0000 </r>
       <r>  -11.9113    1.0000 </r>
       <r>  -11.9113    1.0000 </r>
       <r>  -11.8252    1.0000 </r>
       <r>  -11.8252    1.0000 </r>
       <r>   -9.6361    1.0000 </r>
       <r>   -9.6361    1.0000 </r>
       <r>   -9.2735    1.0000 </r>
       <r>   -9.2735    1.0000 </r>
       <r>   -9.0322    1.0000 </r>
       <r>   -9.0322    1.0000 </r>
       <r>   -4.9315    1.0000 </r>
       <r>   -4.9315    1.0000 </r>
       <r>   -4.6500    1.0000 </r>
       <r>   -4.6500    1.0000 </r>
       <r>   -4.4667    1.0000 </r>
       <r>   -4.4667    1.0000 </r>
       <r>   -3.6259    1.0000 </r>
       <r>   -3.6259    1.0000 </r>
       <r>   -3.1779    1.0000 </r>
       <r>   -3.1779    1.0000 </r>
       <r>   -2.7266    1.0000 </r>
       <r>   -2.7266    1.0000 </r>
       <r>   -1.9825    1.0000 </r>
       <r>   -1.9825    1.0000 </r>
       <r>   -1.2534    1.0000 </r>
       <r>   -1.2534    1.0000 </r>
       <r>   -0.4819    1.0000 </r>
       <r>   -0.4819    1.0000 </r>
       <r>    1.2645    0.0000 </r>
       <r>    1.2645    0.0000 </r>
       <r>    1.6686    0.0000 </r>
       <r>    1.6686    0.0000 </r>
       <r>    1.9723    0.0000 </r>
       <r>    1.9723    0.0000 </r>
       <r>    2.6200    0.0000 </r>
       <r>    2.6200    0.0000 </r>
       <r>    3.3256    0.0000 </r>
       <r>    3.3467    0.0000 </r>
      </set>
      <set comment="kpoint 11">
       <r>  -14.3751    1.0000 </r>
       <r>  -14.1921    1.0000 </r>
       <r>  -14.0778    1.0000 </r>
       <r>  -13.0479    1.0000 </r>
       <r>  -12.7860    1.0000 </r>
       <r>  -12.6482    1.0000 </r>
       <r>   -9.1481    1.0000 </r>
       <r>   -8.8399    1.0000 </r>
       <r>   -8.5935    1.0000 </r>
       <r>   -7.7555    1.0000 </r>
       <r>   -7.3101    1.0000 </r>
       <r>   -6.9419    1.0000 </r>
       <r>   -4.5985    1.0000 </r>
       <r>   -3.7424    1.0000 </r>
       <r>   -3.0425    1.0000 </r>
       <r>   -2.8882    1.0000 </r>
       <r>   -2.8085    1.0000 </r>
       <r>   -2.8005    1.0000 </r>
       <r>   -2.7700    1.0000 </r>
       <r>   -2.4106    1.0000 </r>
       <r>   -2.1409    1.0000 </r>
       <r>   -2.0958    1.0000 </r>
       <r>   -1.9826    1.0000 </r>
       <r>   -1.9501    1.0000 </r>
       <r>   -1.8731    1.0000 </r>
       <r>   -1.7945    1.0000 </r>
       <r>   -0.7482    1.0000 </r>
       <r>   -0.1613    1.0000 </r>
       <r>    0.3173    1.0000 </r>
       <r>    0.5878    1.0000 </r>
       <r>    1.3881    0.0000 </r>
       <r>    1.5217    0.0000 </r>
       <r>    2.0425    0.0000 </r>
       <r>    2.1803    0.0000 </r>
       <r>    2.3082    0.0000 </r>
       <r>    2.4175    0.0000 </r>
       <r>    2.5183    0.0000 </r>
       <r>    3.0814    0.0000 </r>
       <r>    3.1932    0.0000 </r>
       <r>    3.2853    0.0000 </r>
      </set>
      <set comment="kpoint 12">
       <r>  -14.1970    1.0000 </r>
       <r>  -14.0146    1.0000 </r>
       <r>  -13.9012    1.0000 </r>
       <r>  -12.8732    1.0000 </r>
       <r>  -12.6137    1.0000 </r>
       <r>  -12.4776    1.0000 </r>
       <r>   -9.1077    1.0000 </r>
       <r>   -8.8041    1.0000 </r>
       <r>   -8.5657    1.0000 </r>
       <r>   -7.6751    1.0000 </r>
       <r>   -7.2364    1.0000 </r>
       <r>   -6.8765    1.0000 </r>
       <r>   -4.5563    1.0000 </r>
       <r>   -4.4294    1.0000 </r>
       <r>   -4.2004    1.0000 </r>
       <r>   -4.0985    1.0000 </r>
       <r>   -3.6807    1.0000 </r>
       <r>   -3.2964    1.0000 </r>
       <r>   -3.0971    1.0000 </r>
       <r>   -3.0402    1.0000 </r>
       <r>   -2.6825    1.0000 </r>
       <r>   -2.6185    1.0000 </r>
       <r>   -1.9059    1.0000 </r>
       <r>   -1.8463    1.0000 </r>
       <r>   -1.5327    1.0000 </r>
       <r>   -1.5174    1.0000 </r>
       <r>   -0.7051    1.0000 </r>
       <r>   -0.5994    1.0000 </r>
       <r>   -0.0454    1.0000 </r>
       <r>    0.1690    1.0000 </r>
       <r>    1.8672    0.0000 </r>
       <r>    2.6689    0.0000 </r>
       <r>    2.8080    0.0000 </r>
       <r>    3.0238    0.0000 </r>
       <r>    3.2076    0.0000 </r>
       <r>    3.2107    0.0000 </r>
       <r>    3.2867    0.0000 </r>
       <r>    3.2940    0.0000 </r>
       <r>    3.4294    0.0000 </r>
       <r>    3.4941    0.0000 </r>
      </set>
      <set comment="kpoint 13">
       <r>  -13.6715    1.0000 </r>
       <r>  -13.4915    1.0000 </r>
       <r>  -13.3811    1.0000 </r>
       <r>  -12.3693    1.0000 </r>
       <r>  -12.1196    1.0000 </r>
       <r>  -11.9909    1.0000 </r>
       <r>   -9.2064    1.0000 </r>
       <r>   -8.9221    1.0000 </r>
       <r>   -8.7157    1.0000 </r>
       <r>   -7.6800    1.0000 </r>
       <r>   -7.2847    1.0000 </r>
       <r>   -6.9798    1.0000 </r>
       <r>   -5.7917    1.0000 </r>
       <r>   -5.5583    1.0000 </r>
       <r>   -5.3853    1.0000 </r>
       <r>   -5.1552    1.0000 </r>
       <r>   -4.7578    1.0000 </r>
       <r>   -4.5059    1.0000 </r>
       <r>   -3.9082    1.0000 </r>
       <r>   -3.2910    1.0000 </r>
       <r>   -2.6520    1.0000 </r>
       <r>   -2.6093    1.0000 </r>
       <r>   -2.0061    1.0000 </r>
       <r>   -1.9840    1.0000 </r>
       <r>   -1.9824    1.0000 </r>
       <r>   -1.6894    1.0000 </r>
       <r>   -1.2477    1.0000 </r>
       <r>   -1.1670    1.0000 </r>
       <r>   -0.5648    1.0000 </r>
       <r>   -0.1161    1.0000 </r>
       <r>    1.9608    0.0000 </r>
       <r>    2.1765    0.0000 </r>
       <r>    2.4335    0.0000 </r>
       <r>    2.6958    0.0000 </r>
       <r>    3.0260    0.0000 </r>
       <r>    3.2955    0.0000 </r>
       <r>    3.5992    0.0000 </r>
       <r>    3.8033    0.0000 </r>
       <r>    3.8474    0.0000 </r>
       <r>    4.2163    0.0000 </r>
      </set>
      <set comment="kpoint 14">
       <r>  -12.8374    1.0000 </r>
       <r>  -12.6625    1.0000 </r>
       <r>  -12.5587    1.0000 </r>
       <r>  -11.6893    1.0000 </r>
       <r>  -11.4780    1.0000 </r>
       <r>  -11.3752    1.0000 </r>
       <r>   -9.8449    1.0000 </r>
       <r>   -9.5598    1.0000 </r>
       <r>   -9.3682    1.0000 </r>
       <r>   -8.5423    1.0000 </r>
       <r>   -8.2126    1.0000 </r>
       <r>   -7.9973    1.0000 </r>
       <r>   -5.9906    1.0000 </r>
       <r>   -5.7144    1.0000 </r>
       <r>   -5.4914    1.0000 </r>
       <r>   -5.3020    1.0000 </r>
       <r>   -4.8766    1.0000 </r>
       <r>   -4.5560    1.0000 </r>
       <r>   -4.1381    1.0000 </r>
       <r>   -3.8151    1.0000 </r>
       <r>   -3.4640    1.0000 </r>
       <r>   -3.3224    1.0000 </r>
       <r>   -2.9455    1.0000 </r>
       <r>   -2.5732    1.0000 </r>
       <r>   -2.4623    1.0000 </r>
       <r>   -1.9141    1.0000 </r>
       <r>   -1.4658    1.0000 </r>
       <r>   -0.9896    1.0000 </r>
       <r>   -0.6283    1.0000 </r>
       <r>    0.0537    1.0000 </r>
       <r>    1.5424    0.0000 </r>
       <r>    2.2969    0.0000 </r>
       <r>    2.3785    0.0000 </r>
       <r>    2.6642    0.0000 </r>
       <r>    2.6973    0.0000 </r>
       <r>    3.0736    0.0000 </r>
       <r>    3.7425    0.0000 </r>
       <r>    3.9392    0.0000 </r>
       <r>    3.9827    0.0000 </r>
       <r>    4.2116    0.0000 </r>
      </set>
      <set comment="kpoint 15">
       <r>  -11.8606    1.0000 </r>
       <r>  -11.8606    1.0000 </r>
       <r>  -11.6931    1.0000 </r>
       <r>  -11.6931    1.0000 </r>
       <r>  -11.6046    1.0000 </r>
       <r>  -11.6046    1.0000 </r>
       <r>   -9.7341    1.0000 </r>
       <r>   -9.7341    1.0000 </r>
       <r>   -9.4089    1.0000 </r>
       <r>   -9.4089    1.0000 </r>
       <r>   -9.2078    1.0000 </r>
       <r>   -9.2078    1.0000 </r>
       <r>   -5.2508    1.0000 </r>
       <r>   -5.2508    1.0000 </r>
       <r>   -4.9463    1.0000 </r>
       <r>   -4.9463    1.0000 </r>
       <r>   -4.7001    1.0000 </r>
       <r>   -4.7001    1.0000 </r>
       <r>   -4.4050    1.0000 </r>
       <r>   -4.4050    1.0000 </r>
       <r>   -3.9875    1.0000 </r>
       <r>   -3.9875    1.0000 </r>
       <r>   -3.6252    1.0000 </r>
       <r>   -3.6252    1.0000 </r>
       <r>   -2.0069    1.0000 </r>
       <r>   -2.0069    1.0000 </r>
       <r>   -1.1462    1.0000 </r>
       <r>   -1.1462    1.0000 </r>
       <r>   -0.2544    1.0000 </r>
       <r>   -0.2544    1.0000 </r>
       <r>    1.8092    0.0000 </r>
       <r>    1.8092    0.0000 </r>
       <r>    2.6858    0.0000 </r>
       <r>    2.6858    0.0000 </r>
       <r>    3.2830    0.0000 </r>
       <r>    3.2830    0.0000 </r>
       <r>    3.3388    0.0000 </r>
       <r>    3.3388    0.0000 </r>
       <r>    3.6410    0.0000 </r>
       <r>    3.6410    0.0000 </r>
      </set>
      <set comment="kpoint 16">
       <r>  -13.8035    1.0000 </r>
       <r>  -13.8035    1.0000 </r>
       <r>  -13.4442    1.0000 </r>
       <r>  -13.4442    1.0000 </r>
       <r>  -13.3814    1.0000 </r>
       <r>  -13.3814    1.0000 </r>
       <r>   -8.6939    1.0000 </r>
       <r>   -8.6939    1.0000 </r>
       <r>   -8.3038    1.0000 </r>
       <r>   -8.3038    1.0000 </r>
       <r>   -7.9839    1.0000 </r>
       <r>   -7.9839    1.0000 </r>
       <r>   -3.8222    1.0000 </r>
       <r>   -3.8222    1.0000 </r>
       <r>   -2.9039    1.0000 </r>
       <r>   -2.9039    1.0000 </r>
       <r>   -2.6424    1.0000 </r>
       <r>   -2.6424    1.0000 </r>
       <r>   -2.3352    1.0000 </r>
       <r>   -2.3352    1.0000 </r>
       <r>   -2.3211    1.0000 </r>
       <r>   -2.3211    1.0000 </r>
       <r>   -1.9646    1.0000 </r>
       <r>   -1.9646    1.0000 </r>
       <r>   -0.9927    1.0000 </r>
       <r>   -0.9927    1.0000 </r>
       <r>   -0.5955    1.0000 </r>
       <r>   -0.5955    1.0000 </r>
       <r>   -0.1496    1.0000 </r>
       <r>   -0.1496    1.0000 </r>
       <r>    1.6387    0.0000 </r>
       <r>    1.6387    0.0000 </r>
       <r>    2.3271    0.0000 </r>
       <r>    2.3271    0.0000 </r>
       <r>    2.5961    0.0000 </r>
       <r>    2.5961    0.0000 </r>
       <r>    3.3127    0.0000 </r>
       <r>    3.3128    0.0000 </r>
       <r>    3.3229    0.0000 </r>
       <r>    3.3233    0.0000 </r>
      </set>
      <set comment="kpoint 17">
       <r>  -13.6283    1.0000 </r>
       <r>  -13.6283    1.0000 </r>
       <r>  -13.2721    1.0000 </r>
       <r>  -13.2721    1.0000 </r>
       <r>  -13.2101    1.0000 </r>
       <r>  -13.2101    1.0000 </r>
       <r>   -8.6121    1.0000 </r>
       <r>   -8.6121    1.0000 </r>
       <r>   -8.2278    1.0000 </r>
       <r>   -8.2278    1.0000 </r>
       <r>   -7.9156    1.0000 </r>
       <r>   -7.9156    1.0000 </r>
       <r>   -3.9684    1.0000 </r>
       <r>   -3.9684    1.0000 </r>
       <r>   -3.7828    1.0000 </r>
       <r>   -3.7828    1.0000 </r>
       <r>   -3.5797    1.0000 </r>
       <r>   -3.5797    1.0000 </r>
       <r>   -3.5436    1.0000 </r>
       <r>   -3.5436    1.0000 </r>
       <r>   -2.7945    1.0000 </r>
       <r>   -2.7945    1.0000 </r>
       <r>   -1.8934    1.0000 </r>
       <r>   -1.8934    1.0000 </r>
       <r>   -0.9565    1.0000 </r>
       <r>   -0.9565    1.0000 </r>
       <r>   -0.4790    1.0000 </r>
       <r>   -0.4790    1.0000 </r>
       <r>    0.0558    1.0000 </r>
       <r>    0.0558    1.0000 </r>
       <r>    2.4675    0.0000 </r>
       <r>    2.4675    0.0000 </r>
       <r>    2.7507    0.0000 </r>
       <r>    2.7507    0.0000 </r>
       <r>    2.9857    0.0000 </r>
       <r>    2.9857    0.0000 </r>
       <r>    3.0328    0.0000 </r>
       <r>    3.0328    0.0000 </r>
       <r>    3.8482    0.0000 </r>
       <r>    3.8491    0.0000 </r>
      </set>
      <set comment="kpoint 18">
       <r>  -13.1163    1.0000 </r>
       <r>  -13.1163    1.0000 </r>
       <r>  -12.7720    1.0000 </r>
       <r>  -12.7720    1.0000 </r>
       <r>  -12.7130    1.0000 </r>
       <r>  -12.7130    1.0000 </r>
       <r>   -8.5655    1.0000 </r>
       <r>   -8.5655    1.0000 </r>
       <r>   -8.2105    1.0000 </r>
       <r>   -8.2105    1.0000 </r>
       <r>   -7.9441    1.0000 </r>
       <r>   -7.9441    1.0000 </r>
       <r>   -5.5108    1.0000 </r>
       <r>   -5.5108    1.0000 </r>
       <r>   -5.2118    1.0000 </r>
       <r>   -5.2118    1.0000 </r>
       <r>   -5.0518    1.0000 </r>
       <r>   -5.0518    1.0000 </r>
       <r>   -3.4814    1.0000 </r>
       <r>   -3.4814    1.0000 </r>
       <r>   -2.7055    1.0000 </r>
       <r>   -2.7055    1.0000 </r>
       <r>   -2.0605    1.0000 </r>
       <r>   -2.0605    1.0000 </r>
       <r>   -1.8742    1.0000 </r>
       <r>   -1.8742    1.0000 </r>
       <r>   -1.1609    1.0000 </r>
       <r>   -1.1609    1.0000 </r>
       <r>   -0.3904    1.0000 </r>
       <r>   -0.3904    1.0000 </r>
       <r>    2.6337    0.0000 </r>
       <r>    2.6337    0.0000 </r>
       <r>    3.2724    0.0000 </r>
       <r>    3.2724    0.0000 </r>
       <r>    3.3770    0.0000 </r>
       <r>    3.3770    0.0000 </r>
       <r>    3.6152    0.0000 </r>
       <r>    3.6152    0.0000 </r>
       <r>    4.0808    0.0000 </r>
       <r>    4.0808    0.0000 </r>
      </set>
      <set comment="kpoint 19">
       <r>  -12.3378    1.0000 </r>
       <r>  -12.3378    1.0000 </r>
       <r>  -12.0337    1.0000 </r>
       <r>  -12.0337    1.0000 </r>
       <r>  -11.9791    1.0000 </r>
       <r>  -11.9791    1.0000 </r>
       <r>   -9.1911    1.0000 </r>
       <r>   -9.1911    1.0000 </r>
       <r>   -8.8548    1.0000 </r>
       <r>   -8.8548    1.0000 </r>
       <r>   -8.6774    1.0000 </r>
       <r>   -8.6774    1.0000 </r>
       <r>   -5.8347    1.0000 </r>
       <r>   -5.8347    1.0000 </r>
       <r>   -5.5032    1.0000 </r>
       <r>   -5.5032    1.0000 </r>
       <r>   -5.2324    1.0000 </r>
       <r>   -5.2324    1.0000 </r>
       <r>   -3.9787    1.0000 </r>
       <r>   -3.9787    1.0000 </r>
       <r>   -3.4840    1.0000 </r>
       <r>   -3.4840    1.0000 </r>
       <r>   -3.1524    1.0000 </r>
       <r>   -3.1524    1.0000 </r>
       <r>   -2.2109    1.0000 </r>
       <r>   -2.2109    1.0000 </r>
       <r>   -1.2691    1.0000 </r>
       <r>   -1.2691    1.0000 </r>
       <r>   -0.3481    1.0000 </r>
       <r>   -0.3481    1.0000 </r>
       <r>    2.1027    0.0000 </r>
       <r>    2.1027    0.0000 </r>
       <r>    3.0728    0.0000 </r>
       <r>    3.0728    0.0000 </r>
       <r>    3.9732    0.0000 </r>
       <r>    3.9732    0.0000 </r>
       <r>    4.0576    0.0000 </r>
       <r>    4.0576    0.0000 </r>
       <r>    4.3130    0.0000 </r>
       <r>    4.3131    0.0000 </r>
      </set>
      <set comment="kpoint 20">
       <r>  -11.7294    1.0000 </r>
       <r>  -11.7294    1.0000 </r>
       <r>  -11.5615    1.0000 </r>
       <r>  -11.5615    1.0000 </r>
       <r>  -11.4711    1.0000 </r>
       <r>  -11.4711    1.0000 </r>
       <r>   -9.8184    1.0000 </r>
       <r>   -9.8184    1.0000 </r>
       <r>   -9.5145    1.0000 </r>
       <r>   -9.5145    1.0000 </r>
       <r>   -9.3348    1.0000 </r>
       <r>   -9.3348    1.0000 </r>
       <r>   -5.0756    1.0000 </r>
       <r>   -5.0756    1.0000 </r>
       <r>   -5.0652    1.0000 </r>
       <r>   -5.0652    1.0000 </r>
       <r>   -4.6915    1.0000 </r>
       <r>   -4.6915    1.0000 </r>
       <r>   -4.6860    1.0000 </r>
       <r>   -4.6860    1.0000 </r>
       <r>   -4.4213    1.0000 </r>
       <r>   -4.4213    1.0000 </r>
       <r>   -4.3470    1.0000 </r>
       <r>   -4.3470    1.0000 </r>
       <r>   -2.0061    1.0000 </r>
       <r>   -2.0061    1.0000 </r>
       <r>   -1.1077    1.0000 </r>
       <r>   -1.1077    1.0000 </r>
       <r>   -0.1899    1.0000 </r>
       <r>   -0.1899    1.0000 </r>
       <r>    1.6780    0.0000 </r>
       <r>    1.6780    0.0000 </r>
       <r>    2.6753    0.0000 </r>
       <r>    2.6753    0.0000 </r>
       <r>    3.7466    0.0000 </r>
       <r>    3.7466    0.0000 </r>
       <r>    4.6968    0.0000 </r>
       <r>    4.7011    0.0000 </r>
       <r>    4.8418    0.0000 </r>
       <r>    4.8869    0.0000 </r>
      </set>
     </set>
    </set>
   </array>
  </eigenvalues>
  <separator name="orbital magnetization" >
   <v name="MAGDIPOLOUT">      0.00000000      0.00000000      0.00000000</v>
  </separator>
  <dos>
   <i name="efermi">      0.69312557 </i>
   <total>
    <array>
     <dimension dim="1">gridpoints</dimension>
     <dimension dim="2">spin</dimension>
     <field>energy</field>
     <field>total</field>
     <field>integrated</field>
     <set>
      <set comment="spin 1">
       <r>   -15.9466     0.0000     0.0000 </r>
       <r>   -15.9357     0.0000     0.0000 </r>
       <r>   -15.9247     0.0000     0.0000 </r>
       <r>   -15.9138     0.0000     0.0000 </r>
       <r>   -15.9029     0.0000     0.0000 </r>
       <r>   -15.8920     0.0000     0.0000 </r>
       <r>   -15.8811     0.0000     0.0000 </r>
       <r>   -15.8702     0.0000     0.0000 </r>
       <r>   -15.8592     0.0000     0.0000 </r>
       <r>   -15.8483     0.0000     0.0000 </r>
       <r>   -15.8374     0.0000     0.0000 </r>
       <r>   -15.8265     0.0000     0.0000 </r>
       <r>   -15.8156     0.0000     0.0000 </r>
       <r>   -15.8046     0.0000     0.0000 </r>
       <r>   -15.7937     0.0000     0.0000 </r>
       <r>   -15.7828     0.0000     0.0000 </r>
       <r>   -15.7719     0.0000     0.0000 </r>
       <r>   -15.7610     0.0000     0.0000 </r>
       <r>   -15.7501     0.0000     0.0000 </r>
       <r>   -15.7391     0.0000     0.0000 </r>
       <r>   -15.7282     0.0000     0.0000 </r>
       <r>   -15.7173     0.0000     0.0000 </r>
       <r>   -15.7064     0.0000     0.0000 </r>
       <r>   -15.6955     0.0000     0.0000 </r>
       <r>   -15.6845     0.0000     0.0000 </r>
       <r>   -15.6736     0.0000     0.0000 </r>
       <r>   -15.6627     0.0000     0.0000 </r>
       <r>   -15.6518     0.0000     0.0000 </r>
       <r>   -15.6409     0.0000     0.0000 </r>
       <r>   -15.6300     0.0000     0.0000 </r>
       <r>   -15.6190     0.0000     0.0000 </r>
       <r>   -15.6081     0.0000     0.0000 </r>
       <r>   -15.5972     0.0000     0.0000 </r>
       <r>   -15.5863     0.0000     0.0000 </r>
       <r>   -15.5754     0.0000     0.0000 </r>
       <r>   -15.5644     0.0000     0.0000 </r>
       <r>   -15.5535     0.0000     0.0000 </r>
       <r>   -15.5426     0.0000     0.0000 </r>
       <r>   -15.5317     0.0000     0.0000 </r>
       <r>   -15.5208     0.0000     0.0000 </r>
       <r>   -15.5099     0.0000     0.0000 </r>
       <r>   -15.4989     0.0000     0.0000 </r>
       <r>   -15.4880     0.0000     0.0000 </r>
       <r>   -15.4771     0.0000     0.0000 </r>
       <r>   -15.4662     0.0000     0.0000 </r>
       <r>   -15.4553     0.0000     0.0000 </r>
       <r>   -15.4443     0.0000     0.0000 </r>
       <r>   -15.4334     0.0000     0.0000 </r>
       <r>   -15.4225     0.0000     0.0000 </r>
       <r>   -15.4116     0.0000     0.0000 </r>
       <r>   -15.4007     0.0000     0.0000 </r>
       <r>   -15.3898     0.0000     0.0000 </r>
       <r>   -15.3788     0.0000     0.0000 </r>
       <r>   -15.3679     0.0000     0.0000 </r>
       <r>   -15.3570     0.0000     0.0000 </r>
       <r>   -15.3461     0.0000     0.0000 </r>
       <r>   -15.3352     0.0000     0.0000 </r>
       <r>   -15.3242     0.0000     0.0000 </r>
       <r>   -15.3133     0.0000     0.0000 </r>
       <r>   -15.3024     0.0000     0.0000 </r>
       <r>   -15.2915     0.0000     0.0000 </r>
       <r>   -15.2806     0.0000     0.0000 </r>
       <r>   -15.2697     0.0000     0.0000 </r>
       <r>   -15.2587     0.0000     0.0000 </r>
       <r>   -15.2478     0.0000     0.0000 </r>
       <r>   -15.2369     0.0000     0.0000 </r>
       <r>   -15.2260     0.0000     0.0000 </r>
       <r>   -15.2151     0.0000     0.0000 </r>
       <r>   -15.2041     0.0000     0.0000 </r>
       <r>   -15.1932     0.0000     0.0000 </r>
       <r>   -15.1823     0.0000     0.0000 </r>
       <r>   -15.1714     0.0000     0.0000 </r>
       <r>   -15.1605     0.0000     0.0000 </r>
       <r>   -15.1496     0.0000     0.0000 </r>
       <r>   -15.1386     0.0000     0.0000 </r>
       <r>   -15.1277     0.0000     0.0000 </r>
       <r>   -15.1168     0.0000     0.0000 </r>
       <r>   -15.1059     0.0000     0.0000 </r>
       <r>   -15.0950     0.0000     0.0000 </r>
       <r>   -15.0840     0.0000     0.0000 </r>
       <r>   -15.0731     0.0000     0.0000 </r>
       <r>   -15.0622     0.0000     0.0000 </r>
       <r>   -15.0513     0.0000     0.0000 </r>
       <r>   -15.0404     0.0000     0.0000 </r>
       <r>   -15.0295     0.0000     0.0000 </r>
       <r>   -15.0185     0.0000     0.0000 </r>
       <r>   -15.0076     0.0000     0.0000 </r>
       <r>   -14.9967     0.0000     0.0000 </r>
       <r>   -14.9858     0.0000     0.0000 </r>
       <r>   -14.9749     0.0076     0.0001 </r>
       <r>   -14.9639     0.3403     0.0038 </r>
       <r>   -14.9530     1.8784     0.0243 </r>
       <r>   -14.9421     1.4386     0.0400 </r>
       <r>   -14.9312     0.1495     0.0416 </r>
       <r>   -14.9203     0.0019     0.0417 </r>
       <r>   -14.9094     0.0000     0.0417 </r>
       <r>   -14.8984     0.0000     0.0417 </r>
       <r>   -14.8875     0.0000     0.0417 </r>
       <r>   -14.8766     0.0000     0.0417 </r>
       <r>   -14.8657     0.0000     0.0417 </r>
       <r>   -14.8548     0.0000     0.0417 </r>
       <r>   -14.8438     0.0000     0.0417 </r>
       <r>   -14.8329     0.0002     0.0417 </r>
       <r>   -14.8220     0.0398     0.0421 </r>
       <r>   -14.8111     1.1418     0.0546 </r>
       <r>   -14.8002     4.1747     0.1001 </r>
       <r>   -14.7893     2.4134     0.1265 </r>
       <r>   -14.7783     3.2326     0.1618 </r>
       <r>   -14.7674     5.9722     0.2270 </r>
       <r>   -14.7565     2.0065     0.2489 </r>
       <r>   -14.7456     0.0995     0.2500 </r>
       <r>   -14.7347     0.0006     0.2500 </r>
       <r>   -14.7237     0.0000     0.2500 </r>
       <r>   -14.7128     0.0000     0.2500 </r>
       <r>   -14.7019     0.0097     0.2501 </r>
       <r>   -14.6910     0.3888     0.2544 </r>
       <r>   -14.6801     1.9412     0.2755 </r>
       <r>   -14.6692     1.3486     0.2903 </r>
       <r>   -14.6582     0.1265     0.2917 </r>
       <r>   -14.6473     0.0140     0.2918 </r>
       <r>   -14.6364     0.8997     0.3016 </r>
       <r>   -14.6255     8.3631     0.3929 </r>
       <r>   -14.6146    11.3488     0.5168 </r>
       <r>   -14.6036     3.3857     0.5538 </r>
       <r>   -14.5927     4.2250     0.5999 </r>
       <r>   -14.5818     2.1472     0.6234 </r>
       <r>   -14.5709     0.1468     0.6250 </r>
       <r>   -14.5600     0.0012     0.6250 </r>
       <r>   -14.5491     0.0059     0.6251 </r>
       <r>   -14.5381     0.3932     0.6294 </r>
       <r>   -14.5272     3.1777     0.6641 </r>
       <r>   -14.5163     3.6247     0.7036 </r>
       <r>   -14.5054     2.4470     0.7303 </r>
       <r>   -14.4945     4.2467     0.7767 </r>
       <r>   -14.4835     1.3170     0.7911 </r>
       <r>   -14.4726     0.0533     0.7917 </r>
       <r>   -14.4617     0.1452     0.7933 </r>
       <r>   -14.4508     3.0895     0.8270 </r>
       <r>   -14.4399     8.5443     0.9203 </r>
       <r>   -14.4290     3.3168     0.9565 </r>
       <r>   -14.4180     0.1678     0.9583 </r>
       <r>   -14.4071     0.0010     0.9583 </r>
       <r>   -14.3962     0.0108     0.9585 </r>
       <r>   -14.3853     0.5610     0.9646 </r>
       <r>   -14.3744     3.5611     1.0035 </r>
       <r>   -14.3634     3.2560     1.0390 </r>
       <r>   -14.3525     3.3560     1.0756 </r>
       <r>   -14.3416     8.5420     1.1689 </r>
       <r>   -14.3307     3.4296     1.2064 </r>
       <r>   -14.3198     0.1800     1.2083 </r>
       <r>   -14.3089     0.0011     1.2083 </r>
       <r>   -14.2979     0.0000     1.2083 </r>
       <r>   -14.2870     0.0000     1.2083 </r>
       <r>   -14.2761     0.0000     1.2083 </r>
       <r>   -14.2652     0.0000     1.2083 </r>
       <r>   -14.2543     0.0038     1.2084 </r>
       <r>   -14.2433     0.3028     1.2117 </r>
       <r>   -14.2324     2.8909     1.2432 </r>
       <r>   -14.2215     3.7506     1.2842 </r>
       <r>   -14.2106     1.1152     1.2964 </r>
       <r>   -14.1997     6.0018     1.3619 </r>
       <r>   -14.1888    12.1486     1.4945 </r>
       <r>   -14.1778     4.0954     1.5393 </r>
       <r>   -14.1669     0.2193     1.5416 </r>
       <r>   -14.1560     0.0016     1.5417 </r>
       <r>   -14.1451     0.0000     1.5417 </r>
       <r>   -14.1342     0.0000     1.5417 </r>
       <r>   -14.1232     0.0000     1.5417 </r>
       <r>   -14.1123     0.0011     1.5417 </r>
       <r>   -14.1014     0.1859     1.5437 </r>
       <r>   -14.0905     3.7268     1.5844 </r>
       <r>   -14.0796    11.3137     1.7079 </r>
       <r>   -14.0687     7.1259     1.7857 </r>
       <r>   -14.0577     3.8753     1.8280 </r>
       <r>   -14.0468     3.6736     1.8681 </r>
       <r>   -14.0359     0.6348     1.8751 </r>
       <r>   -14.0250     1.0797     1.8869 </r>
       <r>   -14.0141     7.0150     1.9635 </r>
       <r>   -14.0031     6.3620     2.0329 </r>
       <r>   -13.9922     0.7895     2.0415 </r>
       <r>   -13.9813     0.0467     2.0420 </r>
       <r>   -13.9704     1.0669     2.0537 </r>
       <r>   -13.9595     4.1303     2.0988 </r>
       <r>   -13.9486     2.2376     2.1232 </r>
       <r>   -13.9376     0.1619     2.1250 </r>
       <r>   -13.9267     0.1200     2.1263 </r>
       <r>   -13.9158     3.0677     2.1598 </r>
       <r>   -13.9049    12.8217     2.2998 </r>
       <r>   -13.8940    11.9875     2.4307 </r>
       <r>   -13.8830     2.4550     2.4575 </r>
       <r>   -13.8721     0.0786     2.4583 </r>
       <r>   -13.8612     0.0003     2.4583 </r>
       <r>   -13.8503     0.0000     2.4583 </r>
       <r>   -13.8394     0.0015     2.4583 </r>
       <r>   -13.8284     0.2232     2.4608 </r>
       <r>   -13.8175     3.9588     2.5040 </r>
       <r>   -13.8066    10.8145     2.6221 </r>
       <r>   -13.7957     6.7577     2.6959 </r>
       <r>   -13.7848     1.1101     2.7080 </r>
       <r>   -13.7739     0.0315     2.7083 </r>
       <r>   -13.7629     0.0001     2.7083 </r>
       <r>   -13.7520     0.0000     2.7083 </r>
       <r>   -13.7411     0.0000     2.7083 </r>
       <r>   -13.7302     0.0000     2.7083 </r>
       <r>   -13.7193     0.0000     2.7083 </r>
       <r>   -13.7083     0.0000     2.7083 </r>
       <r>   -13.6974     0.0019     2.7084 </r>
       <r>   -13.6865     0.2594     2.7112 </r>
       <r>   -13.6756     4.0624     2.7555 </r>
       <r>   -13.6647     8.4101     2.8474 </r>
       <r>   -13.6538     2.4427     2.8740 </r>
       <r>   -13.6428     0.3902     2.8783 </r>
       <r>   -13.6319     4.3330     2.9256 </r>
       <r>   -13.6210     8.3177     3.0164 </r>
       <r>   -13.6101     2.2358     3.0408 </r>
       <r>   -13.5992     0.0764     3.0417 </r>
       <r>   -13.5882     0.0003     3.0417 </r>
       <r>   -13.5773     0.0000     3.0417 </r>
       <r>   -13.5664     0.0000     3.0417 </r>
       <r>   -13.5555     0.0000     3.0417 </r>
       <r>   -13.5446     0.0000     3.0417 </r>
       <r>   -13.5337     0.0000     3.0417 </r>
       <r>   -13.5227     0.0001     3.0417 </r>
       <r>   -13.5118     0.0307     3.0420 </r>
       <r>   -13.5009     1.3650     3.0569 </r>
       <r>   -13.4900     7.5187     3.1390 </r>
       <r>   -13.4791     5.7471     3.2017 </r>
       <r>   -13.4681     0.5988     3.2083 </r>
       <r>   -13.4572     0.2563     3.2111 </r>
       <r>   -13.4463     2.6799     3.2403 </r>
       <r>   -13.4354     3.8936     3.2829 </r>
       <r>   -13.4245     0.7874     3.2914 </r>
       <r>   -13.4136     0.0199     3.2917 </r>
       <r>   -13.4026     0.0280     3.2920 </r>
       <r>   -13.3917     1.5421     3.3088 </r>
       <r>   -13.3808    10.4013     3.4224 </r>
       <r>   -13.3699     9.6863     3.5281 </r>
       <r>   -13.3590     1.8347     3.5482 </r>
       <r>   -13.3480     3.6518     3.5880 </r>
       <r>   -13.3371     3.0356     3.6212 </r>
       <r>   -13.3262     0.3457     3.6249 </r>
       <r>   -13.3153     0.0047     3.6250 </r>
       <r>   -13.3044     0.0000     3.6250 </r>
       <r>   -13.2935     0.0189     3.6252 </r>
       <r>   -13.2825     1.0368     3.6365 </r>
       <r>   -13.2716     6.9541     3.7125 </r>
       <r>   -13.2607     6.4289     3.7826 </r>
       <r>   -13.2498     0.8138     3.7915 </r>
       <r>   -13.2389     0.0179     3.7917 </r>
       <r>   -13.2279     0.5644     3.7979 </r>
       <r>   -13.2170     7.6745     3.8817 </r>
       <r>   -13.2061    16.2453     4.0590 </r>
       <r>   -13.1952     5.7827     4.1222 </r>
       <r>   -13.1843     1.6108     4.1398 </r>
       <r>   -13.1734     4.2351     4.1860 </r>
       <r>   -13.1624     1.9279     4.2071 </r>
       <r>   -13.1515     0.1156     4.2083 </r>
       <r>   -13.1406     0.0053     4.2084 </r>
       <r>   -13.1297     0.4414     4.2132 </r>
       <r>   -13.1188     5.1070     4.2690 </r>
       <r>   -13.1078     7.9557     4.3558 </r>
       <r>   -13.0969     2.3458     4.3814 </r>
       <r>   -13.0860     3.7158     4.4220 </r>
       <r>   -13.0751     2.9915     4.4547 </r>
       <r>   -13.0642     0.4273     4.4593 </r>
       <r>   -13.0533     2.5499     4.4872 </r>
       <r>   -13.0423    10.9844     4.6071 </r>
       <r>   -13.0314     8.2658     4.6973 </r>
       <r>   -13.0205     0.9904     4.7082 </r>
       <r>   -13.0096     0.0156     4.7083 </r>
       <r>   -12.9987     0.0000     4.7083 </r>
       <r>   -12.9877     0.0000     4.7083 </r>
       <r>   -12.9768     0.0009     4.7083 </r>
       <r>   -12.9659     0.1572     4.7101 </r>
       <r>   -12.9550     3.2138     4.7451 </r>
       <r>   -12.9441     8.5469     4.8385 </r>
       <r>   -12.9332     3.1905     4.8733 </r>
       <r>   -12.9222     0.1548     4.8750 </r>
       <r>   -12.9113     0.0009     4.8750 </r>
       <r>   -12.9004     0.0009     4.8750 </r>
       <r>   -12.8895     0.1624     4.8768 </r>
       <r>   -12.8786     3.2647     4.9124 </r>
       <r>   -12.8676     8.5463     5.0057 </r>
       <r>   -12.8567     3.1886     5.0406 </r>
       <r>   -12.8458     1.9044     5.0613 </r>
       <r>   -12.8349     7.9741     5.1484 </r>
       <r>   -12.8240     5.0540     5.2036 </r>
       <r>   -12.8131     0.4308     5.2083 </r>
       <r>   -12.8021     0.0912     5.2093 </r>
       <r>   -12.7912     1.7348     5.2282 </r>
       <r>   -12.7803     6.0494     5.2943 </r>
       <r>   -12.7694     9.5147     5.3982 </r>
       <r>   -12.7585     5.0844     5.4537 </r>
       <r>   -12.7475     0.4226     5.4583 </r>
       <r>   -12.7366     0.0104     5.4584 </r>
       <r>   -12.7257     0.5400     5.4643 </r>
       <r>   -12.7148     5.5336     5.5247 </r>
       <r>   -12.7039     7.6713     5.6085 </r>
       <r>   -12.6930     1.4786     5.6246 </r>
       <r>   -12.6820     0.0935     5.6256 </r>
       <r>   -12.6711     2.3223     5.6510 </r>
       <r>   -12.6602    11.9395     5.7813 </r>
       <r>   -12.6493    11.1524     5.9031 </r>
       <r>   -12.6384     4.4290     5.9515 </r>
       <r>   -12.6274     1.0081     5.9625 </r>
       <r>   -12.6165     4.8567     6.0155 </r>
       <r>   -12.6056     8.0875     6.1038 </r>
       <r>   -12.5947     1.8858     6.1244 </r>
       <r>   -12.5838     0.0638     6.1251 </r>
       <r>   -12.5729     0.6248     6.1319 </r>
       <r>   -12.5619     6.3682     6.2014 </r>
       <r>   -12.5510     9.7677     6.3081 </r>
       <r>   -12.5401     2.2441     6.3326 </r>
       <r>   -12.5292     0.0680     6.3333 </r>
       <r>   -12.5183     0.0002     6.3333 </r>
       <r>   -12.5073     0.0004     6.3333 </r>
       <r>   -12.4964     0.1244     6.3347 </r>
       <r>   -12.4855     4.0117     6.3785 </r>
       <r>   -12.4746    16.3525     6.5570 </r>
       <r>   -12.4637     9.3243     6.6588 </r>
       <r>   -12.4528     0.7103     6.6666 </r>
       <r>   -12.4418     0.0063     6.6667 </r>
       <r>   -12.4309     0.0000     6.6667 </r>
       <r>   -12.4200     0.0000     6.6667 </r>
       <r>   -12.4091     0.0000     6.6667 </r>
       <r>   -12.3982     0.0028     6.6667 </r>
       <r>   -12.3872     0.3205     6.6702 </r>
       <r>   -12.3763     4.9983     6.7248 </r>
       <r>   -12.3654    12.3227     6.8593 </r>
       <r>   -12.3545     5.0966     6.9150 </r>
       <r>   -12.3436     3.2909     6.9509 </r>
       <r>   -12.3327     8.7720     7.0467 </r>
       <r>   -12.3217     6.0189     7.1124 </r>
       <r>   -12.3108     4.1188     7.1573 </r>
       <r>   -12.2999     0.8316     7.1664 </r>
       <r>   -12.2890     0.0219     7.1667 </r>
       <r>   -12.2781     0.0001     7.1667 </r>
       <r>   -12.2671     0.0000     7.1667 </r>
       <r>   -12.2562     0.0000     7.1667 </r>
       <r>   -12.2453     0.0000     7.1667 </r>
       <r>   -12.2344     0.0000     7.1667 </r>
       <r>   -12.2235     0.0000     7.1667 </r>
       <r>   -12.2126     0.0003     7.1667 </r>
       <r>   -12.2016     0.0501     7.1672 </r>
       <r>   -12.1907     0.9230     7.1773 </r>
       <r>   -12.1798     2.9497     7.2095 </r>
       <r>   -12.1689     4.6358     7.2601 </r>
       <r>   -12.1580     2.6782     7.2894 </r>
       <r>   -12.1470     1.4940     7.3057 </r>
       <r>   -12.1361     7.5040     7.3876 </r>
       <r>   -12.1252     9.0659     7.4866 </r>
       <r>   -12.1143     9.7260     7.5928 </r>
       <r>   -12.1034     6.8092     7.6671 </r>
       <r>   -12.0925     3.6556     7.7070 </r>
       <r>   -12.0815     4.6562     7.7579 </r>
       <r>   -12.0706     8.3532     7.8491 </r>
       <r>   -12.0597     2.2962     7.8741 </r>
       <r>   -12.0488     0.3306     7.8777 </r>
       <r>   -12.0379     3.9980     7.9214 </r>
       <r>   -12.0269     8.4366     8.0135 </r>
       <r>   -12.0160     2.9773     8.0460 </r>
       <r>   -12.0051     4.7683     8.0981 </r>
       <r>   -11.9942    12.2506     8.2318 </r>
       <r>   -11.9833    14.9786     8.3954 </r>
       <r>   -11.9724    10.7102     8.5123 </r>
       <r>   -11.9614     2.6023     8.5407 </r>
       <r>   -11.9505     0.8658     8.5502 </r>
       <r>   -11.9396     6.9686     8.6263 </r>
       <r>   -11.9287    13.2650     8.7711 </r>
       <r>   -11.9178    17.2795     8.9598 </r>
       <r>   -11.9068    14.4788     9.1178 </r>
       <r>   -11.8959     4.2394     9.1641 </r>
       <r>   -11.8850     0.2356     9.1667 </r>
       <r>   -11.8741     0.4227     9.1713 </r>
       <r>   -11.8632     5.0092     9.2260 </r>
       <r>   -11.8523     7.9995     9.3133 </r>
       <r>   -11.8413     1.9523     9.3347 </r>
       <r>   -11.8304     3.4113     9.3719 </r>
       <r>   -11.8195     9.3778     9.4743 </r>
       <r>   -11.8086     7.0123     9.5509 </r>
       <r>   -11.7977     2.7413     9.5808 </r>
       <r>   -11.7867     0.2312     9.5833 </r>
       <r>   -11.7758     0.0024     9.5833 </r>
       <r>   -11.7649     0.0096     9.5834 </r>
       <r>   -11.7540     0.5240     9.5892 </r>
       <r>   -11.7431     3.6835     9.6294 </r>
       <r>   -11.7322     5.6522     9.6911 </r>
       <r>   -11.7212     4.4356     9.7395 </r>
       <r>   -11.7103     1.0706     9.7512 </r>
       <r>   -11.6994     3.9154     9.7940 </r>
       <r>   -11.6885    15.6519     9.9648 </r>
       <r>   -11.6776     9.8945    10.0729 </r>
       <r>   -11.6666     0.9458    10.0832 </r>
       <r>   -11.6557     0.0119    10.0833 </r>
       <r>   -11.6448     0.0000    10.0833 </r>
       <r>   -11.6339     0.0011    10.0833 </r>
       <r>   -11.6230     0.2208    10.0858 </r>
       <r>   -11.6121     5.3005    10.1436 </r>
       <r>   -11.6011    16.8311    10.3274 </r>
[...]
        <r>  0.0377  0.0052  0.0192  0.0016  0.0000  0.0000  0.0000  0.0000  0.0000 </r>
        <r>  0.0053  0.0007  0.0027  0.0115  0.0000  0.0000  0.0000  0.0000  0.0000 </r>
        <r>  0.0377  0.0052  0.0192  0.0016  0.0000  0.0000  0.0000  0.0000  0.0000 </r>
        <r>  0.0053  0.0007  0.0027  0.0115  0.0000  0.0000  0.0000  0.0000  0.0000 </r>
        <r>  0.0036  0.0007  0.0011  0.0039  0.0000  0.0000  0.0000  0.0000  0.0000 </r>
        <r>  0.0257  0.0046  0.0077  0.0006  0.0000  0.0000  0.0000  0.0000  0.0000 </r>
        <r>  0.0040  0.0006  0.0035  0.0168  0.0000  0.0000  0.0000  0.0000  0.0000 </r>
        <r>  0.0280  0.0042  0.0247  0.0024  0.0000  0.0000  0.0000  0.0000  0.0000 </r>
       </set>
       <set comment="band 25">
        <r>  0.0014  0.0030  0.0012  0.0087  0.0000  0.0000  0.0000  0.0000  0.0000 </r>
        <r>  0.0127  0.0274  0.0114  0.0009  0.0000  0.0000  0.0000  0.0000  0.0000 </r>
        <r>  0.0000  0.0034  0.0003  0.0037  0.0000  0.0000  0.0000  0.0000  0.0000 </r>
        <r>  0.0000  0.0313  0.0027  0.0004  0.0000  0.0000  0.0000  0.0000  0.0000 </r>
        <r>  0.0069  0.0636  0.0136  0.0014  0.0000  0.0000  0.0000  0.0000  0.0000 </r>
        <r>  0.0008  0.0069  0.0015  0.0128  0.0000  0.0000  0.0000  0.0000  0.0000 </r>
        <r>  0.0069  0.0636  0.0136  0.0014  0.0000  0.0000  0.0000  0.0000  0.0000 </r>
        <r>  0.0008  0.0069  0.0015  0.0128  0.0000  0.0000  0.0000  0.0000  0.0000 </r>
        <r>  0.0000  0.0034  0.0003  0.0037  0.0000  0.0000  0.0000  0.0000  0.0000 </r>
        <r>  0.0000  0.0313  0.0027  0.0004  0.0000  0.0000  0.0000  0.0000  0.0000 </r>
        <r>  0.0014  0.0030  0.0012  0.0087  0.0000  0.0000  0.0000  0.0000  0.0000 </r>
        <r>  0.0127  0.0274  0.0114  0.0009  0.0000  0.0000  0.0000  0.0000  0.0000 </r>
       </set>
       <set comment="band 26">
        <r>  0.0127  0.0274  0.0114  0.0009  0.0000  0.0000  0.0000  0.0000  0.0000 </r>
        <r>  0.0014  0.0030  0.0012  0.0087  0.0000  0.0000  0.0000  0.0000  0.0000 </r>
        <r>  0.0000  0.0313  0.0027  0.0004  0.0000  0.0000  0.0000  0.0000  0.0000 </r>
        <r>  0.0000  0.0034  0.0003  0.0037  0.0000  0.0000  0.0000  0.0000  0.0000 </r>
        <r>  0.0008  0.0069  0.0015  0.0128  0.0000  0.0000  0.0000  0.0000  0.0000 </r>
        <r>  0.0069  0.0636  0.0136  0.0014  0.0000  0.0000  0.0000  0.0000  0.0000 </r>
        <r>  0.0008  0.0069  0.0015  0.0128  0.0000  0.0000  0.0000  0.0000  0.0000 </r>
        <r>  0.0069  0.0636  0.0136  0.0014  0.0000  0.0000  0.0000  0.0000  0.0000 </r>
        <r>  0.0000  0.0313  0.0027  0.0004  0.0000  0.0000  0.0000  0.0000  0.0000 </r>
        <r>  0.0000  0.0034  0.0003  0.0037  0.0000  0.0000  0.0000  0.0000  0.0000 </r>
        <r>  0.0127  0.0274  0.0114  0.0009  0.0000  0.0000  0.0000  0.0000  0.0000 </r>
        <r>  0.0014  0.0030  0.0012  0.0087  0.0000  0.0000  0.0000  0.0000  0.0000 </r>
       </set>
       <set comment="band 27">
        <r>  0.0044  0.0265  0.0048  0.0071  0.0000  0.0000  0.0000  0.0000  0.0000 </r>
        <r>  0.0078  0.0469  0.0084  0.0040  0.0000  0.0000  0.0000  0.0000  0.0000 </r>
        <r>  0.0032  0.0284  0.0042  0.0068  0.0000  0.0000  0.0000  0.0000  0.0000 </r>
        <r>  0.0056  0.0502  0.0075  0.0038  0.0000  0.0000  0.0000  0.0000  0.0000 </r>
        <r>  0.0068  0.0008  0.0012  0.0002  0.0000  0.0000  0.0000  0.0000  0.0000 </r>
        <r>  0.0038  0.0004  0.0007  0.0003  0.0000  0.0000  0.0000  0.0000  0.0000 </r>
        <r>  0.0068  0.0008  0.0012  0.0002  0.0000  0.0000  0.0000  0.0000  0.0000 </r>
        <r>  0.0038  0.0004  0.0007  0.0003  0.0000  0.0000  0.0000  0.0000  0.0000 </r>
        <r>  0.0032  0.0284  0.0042  0.0068  0.0000  0.0000  0.0000  0.0000  0.0000 </r>
        <r>  0.0056  0.0502  0.0075  0.0038  0.0000  0.0000  0.0000  0.0000  0.0000 </r>
        <r>  0.0044  0.0265  0.0048  0.0071  0.0000  0.0000  0.0000  0.0000  0.0000 </r>
        <r>  0.0078  0.0469  0.0084  0.0040  0.0000  0.0000  0.0000  0.0000  0.0000 </r>
       </set>
       <set comment="band 28">
        <r>  0.0078  0.0469  0.0084  0.0040  0.0000  0.0000  0.0000  0.0000  0.0000 </r>
        <r>  0.0044  0.0265  0.0048  0.0071  0.0000  0.0000  0.0000  0.0000  0.0000 </r>
        <r>  0.0056  0.0502  0.0075  0.0038  0.0000  0.0000  0.0000  0.0000  0.0000 </r>
        <r>  0.0032  0.0284  0.0042  0.0068  0.0000  0.0000  0.0000  0.0000  0.0000 </r>
        <r>  0.0038  0.0004  0.0007  0.0003  0.0000  0.0000  0.0000  0.0000  0.0000 </r>
        <r>  0.0068  0.0008  0.0012  0.0002  0.0000  0.0000  0.0000  0.0000  0.0000 </r>
        <r>  0.0038  0.0004  0.0007  0.0003  0.0000  0.0000  0.0000  0.0000  0.0000 </r>
        <r>  0.0068  0.0008  0.0012  0.0002  0.0000  0.0000  0.0000  0.0000  0.0000 </r>
        <r>  0.0056  0.0502  0.0075  0.0038  0.0000  0.0000  0.0000  0.0000  0.0000 </r>
        <r>  0.0032  0.0284  0.0042  0.0068  0.0000  0.0000  0.0000  0.0000  0.0000 </r>
        <r>  0.0078  0.0469  0.0084  0.0040  0.0000  0.0000  0.0000  0.0000  0.0000 </r>
        <r>  0.0044  0.0265  0.0048  0.0071  0.0000  0.0000  0.0000  0.0000  0.0000 </r>
       </set>
       <set comment="band 29">
        <r>  0.0005  0.0174  0.0009  0.0024  0.0000  0.0000  0.0000  0.0000  0.0000 </r>
        <r>  0.0013  0.0439  0.0023  0.0010  0.0000  0.0000  0.0000  0.0000  0.0000 </r>
        <r>  0.0055  0.0107  0.0025  0.0042  0.0000  0.0000  0.0000  0.0000  0.0000 </r>
        <r>  0.0138  0.0272  0.0063  0.0017  0.0000  0.0000  0.0000  0.0000  0.0000 </r>
        <r>  0.0102  0.0585  0.0074  0.0023  0.0000  0.0000  0.0000  0.0000  0.0000 </r>
        <r>  0.0040  0.0232  0.0029  0.0059  0.0000  0.0000  0.0000  0.0000  0.0000 </r>
        <r>  0.0102  0.0585  0.0074  0.0023  0.0000  0.0000  0.0000  0.0000  0.0000 </r>
        <r>  0.0040  0.0232  0.0029  0.0059  0.0000  0.0000  0.0000  0.0000  0.0000 </r>
        <r>  0.0055  0.0107  0.0025  0.0042  0.0000  0.0000  0.0000  0.0000  0.0000 </r>
        <r>  0.0138  0.0272  0.0063  0.0017  0.0000  0.0000  0.0000  0.0000  0.0000 </r>
        <r>  0.0005  0.0174  0.0009  0.0024  0.0000  0.0000  0.0000  0.0000  0.0000 </r>
        <r>  0.0013  0.0439  0.0023  0.0010  0.0000  0.0000  0.0000  0.0000  0.0000 </r>
       </set>
       <set comment="band 30">
        <r>  0.0013  0.0439  0.0023  0.0010  0.0000  0.0000  0.0000  0.0000  0.0000 </r>
        <r>  0.0005  0.0174  0.0009  0.0024  0.0000  0.0000  0.0000  0.0000  0.0000 </r>
        <r>  0.0138  0.0272  0.0063  0.0017  0.0000  0.0000  0.0000  0.0000  0.0000 </r>
        <r>  0.0055  0.0107  0.0025  0.0042  0.0000  0.0000  0.0000  0.0000  0.0000 </r>
        <r>  0.0040  0.0232  0.0029  0.0059  0.0000  0.0000  0.0000  0.0000  0.0000 </r>
        <r>  0.0102  0.0585  0.0074  0.0023  0.0000  0.0000  0.0000  0.0000  0.0000 </r>
        <r>  0.0040  0.0232  0.0029  0.0059  0.0000  0.0000  0.0000  0.0000  0.0000 </r>
        <r>  0.0102  0.0585  0.0074  0.0023  0.0000  0.0000  0.0000  0.0000  0.0000 </r>
        <r>  0.0138  0.0272  0.0063  0.0017  0.0000  0.0000  0.0000  0.0000  0.0000 </r>
        <r>  0.0055  0.0107  0.0025  0.0042  0.0000  0.0000  0.0000  0.0000  0.0000 </r>
        <r>  0.0013  0.0439  0.0023  0.0010  0.0000  0.0000  0.0000  0.0000  0.0000 </r>
        <r>  0.0005  0.0174  0.0009  0.0024  0.0000  0.0000  0.0000  0.0000  0.0000 </r>
       </set>
       <set comment="band 31">
        <r>  0.0037  0.0336  0.0020  0.0002  0.0000  0.0000  0.0000  0.0000  0.0000 </r>
        <r>  0.0007  0.0061  0.0004  0.0010  0.0000  0.0000  0.0000  0.0000  0.0000 </r>
        <r>  0.0106  0.0081  0.0004  0.0000  0.0000  0.0000  0.0000  0.0000  0.0000 </r>
        <r>  0.0019  0.0014  0.0001  0.0003  0.0000  0.0000  0.0000  0.0000  0.0000 </r>
        <r>  0.0022  0.0069  0.0004  0.0012  0.0000  0.0000  0.0000  0.0000  0.0000 </r>
        <r>  0.0121  0.0382  0.0020  0.0002  0.0000  0.0000  0.0000  0.0000  0.0000 </r>
        <r>  0.0022  0.0069  0.0004  0.0012  0.0000  0.0000  0.0000  0.0000  0.0000 </r>
        <r>  0.0121  0.0382  0.0020  0.0002  0.0000  0.0000  0.0000  0.0000  0.0000 </r>
        <r>  0.0106  0.0081  0.0004  0.0000  0.0000  0.0000  0.0000  0.0000  0.0000 </r>
        <r>  0.0019  0.0014  0.0001  0.0003  0.0000  0.0000  0.0000  0.0000  0.0000 </r>
        <r>  0.0037  0.0336  0.0020  0.0002  0.0000  0.0000  0.0000  0.0000  0.0000 </r>
        <r>  0.0007  0.0061  0.0004  0.0010  0.0000  0.0000  0.0000  0.0000  0.0000 </r>
       </set>
       <set comment="band 32">
        <r>  0.0007  0.0061  0.0004  0.0010  0.0000  0.0000  0.0000  0.0000  0.0000 </r>
        <r>  0.0037  0.0336  0.0020  0.0002  0.0000  0.0000  0.0000  0.0000  0.0000 </r>
        <r>  0.0019  0.0014  0.0001  0.0003  0.0000  0.0000  0.0000  0.0000  0.0000 </r>
        <r>  0.0106  0.0081  0.0004  0.0000  0.0000  0.0000  0.0000  0.0000  0.0000 </r>
        <r>  0.0121  0.0382  0.0020  0.0002  0.0000  0.0000  0.0000  0.0000  0.0000 </r>
        <r>  0.0022  0.0069  0.0004  0.0012  0.0000  0.0000  0.0000  0.0000  0.0000 </r>
        <r>  0.0121  0.0382  0.0020  0.0002  0.0000  0.0000  0.0000  0.0000  0.0000 </r>
        <r>  0.0022  0.0069  0.0004  0.0012  0.0000  0.0000  0.0000  0.0000  0.0000 </r>
        <r>  0.0019  0.0014  0.0001  0.0003  0.0000  0.0000  0.0000  0.0000  0.0000 </r>
        <r>  0.0106  0.0081  0.0004  0.0000  0.0000  0.0000  0.0000  0.0000  0.0000 </r>
        <r>  0.0007  0.0061  0.0004  0.0010  0.0000  0.0000  0.0000  0.0000  0.0000 </r>
        <r>  0.0037  0.0336  0.0020  0.0002  0.0000  0.0000  0.0000  0.0000  0.0000 </r>
       </set>
       <set comment="band 33">
        <r>  0.0021  0.0080  0.0007  0.0028  0.0000  0.0000  0.0000  0.0000  0.0000 </r>
        <r>  0.0091  0.0343  0.0030  0.0007  0.0000  0.0000  0.0000  0.0000  0.0000 </r>
        <r>  0.0016  0.0097  0.0003  0.0016  0.0000  0.0000  0.0000  0.0000  0.0000 </r>
        <r>  0.0070  0.0416  0.0012  0.0004  0.0000  0.0000  0.0000  0.0000  0.0000 </r>
        <r>  0.0014  0.0062  0.0011  0.0001  0.0000  0.0000  0.0000  0.0000  0.0000 </r>
        <r>  0.0003  0.0014  0.0003  0.0003  0.0000  0.0000  0.0000  0.0000  0.0000 </r>
        <r>  0.0014  0.0062  0.0011  0.0001  0.0000  0.0000  0.0000  0.0000  0.0000 </r>
        <r>  0.0003  0.0014  0.0003  0.0003  0.0000  0.0000  0.0000  0.0000  0.0000 </r>
        <r>  0.0016  0.0097  0.0003  0.0016  0.0000  0.0000  0.0000  0.0000  0.0000 </r>
        <r>  0.0070  0.0416  0.0012  0.0004  0.0000  0.0000  0.0000  0.0000  0.0000 </r>
        <r>  0.0021  0.0080  0.0007  0.0028  0.0000  0.0000  0.0000  0.0000  0.0000 </r>
        <r>  0.0091  0.0343  0.0030  0.0007  0.0000  0.0000  0.0000  0.0000  0.0000 </r>
       </set>
       <set comment="band 34">
        <r>  0.0091  0.0343  0.0030  0.0007  0.0000  0.0000  0.0000  0.0000  0.0000 </r>
        <r>  0.0021  0.0080  0.0007  0.0028  0.0000  0.0000  0.0000  0.0000  0.0000 </r>
        <r>  0.0070  0.0416  0.0012  0.0004  0.0000  0.0000  0.0000  0.0000  0.0000 </r>
        <r>  0.0016  0.0097  0.0003  0.0016  0.0000  0.0000  0.0000  0.0000  0.0000 </r>
        <r>  0.0003  0.0014  0.0003  0.0003  0.0000  0.0000  0.0000  0.0000  0.0000 </r>
        <r>  0.0014  0.0062  0.0011  0.0001  0.0000  0.0000  0.0000  0.0000  0.0000 </r>
        <r>  0.0003  0.0014  0.0003  0.0003  0.0000  0.0000  0.0000  0.0000  0.0000 </r>
        <r>  0.0014  0.0062  0.0011  0.0001  0.0000  0.0000  0.0000  0.0000  0.0000 </r>
        <r>  0.0070  0.0416  0.0012  0.0004  0.0000  0.0000  0.0000  0.0000  0.0000 </r>
        <r>  0.0016  0.0097  0.0003  0.0016  0.0000  0.0000  0.0000  0.0000  0.0000 </r>
        <r>  0.0091  0.0343  0.0030  0.0007  0.0000  0.0000  0.0000  0.0000  0.0000 </r>
        <r>  0.0021  0.0080  0.0007  0.0028  0.0000  0.0000  0.0000  0.0000  0.0000 </r>
       </set>
       <set comment="band 35">
        <r>  0.0048  0.0122  0.0001  0.0009  0.0000  0.0000  0.0000  0.0000  0.0000 </r>
        <r>  0.0033  0.0084  0.0000  0.0014  0.0000  0.0000  0.0000  0.0000  0.0000 </r>
        <r>  0.0018  0.0271  0.0027  0.0019  0.0000  0.0000  0.0000  0.0000  0.0000 </r>
        <r>  0.0013  0.0187  0.0019  0.0028  0.0000  0.0000  0.0000  0.0000  0.0000 </r>
        <r>  0.0026  0.0191  0.0009  0.0036  0.0000  0.0000  0.0000  0.0000  0.0000 </r>
        <r>  0.0037  0.0277  0.0012  0.0025  0.0000  0.0000  0.0000  0.0000  0.0000 </r>
        <r>  0.0026  0.0191  0.0009  0.0036  0.0000  0.0000  0.0000  0.0000  0.0000 </r>
        <r>  0.0037  0.0277  0.0012  0.0025  0.0000  0.0000  0.0000  0.0000  0.0000 </r>
        <r>  0.0018  0.0271  0.0027  0.0019  0.0000  0.0000  0.0000  0.0000  0.0000 </r>
        <r>  0.0013  0.0187  0.0019  0.0028  0.0000  0.0000  0.0000  0.0000  0.0000 </r>
        <r>  0.0048  0.0122  0.0001  0.0009  0.0000  0.0000  0.0000  0.0000  0.0000 </r>
        <r>  0.0033  0.0084  0.0000  0.0014  0.0000  0.0000  0.0000  0.0000  0.0000 </r>
       </set>
       <set comment="band 36">
        <r>  0.0033  0.0084  0.0000  0.0014  0.0000  0.0000  0.0000  0.0000  0.0000 </r>
        <r>  0.0048  0.0122  0.0001  0.0009  0.0000  0.0000  0.0000  0.0000  0.0000 </r>
        <r>  0.0013  0.0187  0.0019  0.0028  0.0000  0.0000  0.0000  0.0000  0.0000 </r>
        <r>  0.0018  0.0271  0.0027  0.0019  0.0000  0.0000  0.0000  0.0000  0.0000 </r>
        <r>  0.0037  0.0277  0.0012  0.0025  0.0000  0.0000  0.0000  0.0000  0.0000 </r>
        <r>  0.0026  0.0191  0.0009  0.0036  0.0000  0.0000  0.0000  0.0000  0.0000 </r>
        <r>  0.0037  0.0277  0.0012  0.0025  0.0000  0.0000  0.0000  0.0000  0.0000 </r>
        <r>  0.0026  0.0191  0.0009  0.0036  0.0000  0.0000  0.0000  0.0000  0.0000 </r>
        <r>  0.0013  0.0187  0.0019  0.0028  0.0000  0.0000  0.0000  0.0000  0.0000 </r>
        <r>  0.0018  0.0271  0.0027  0.0019  0.0000  0.0000  0.0000  0.0000  0.0000 </r>
        <r>  0.0033  0.0084  0.0000  0.0014  0.0000  0.0000  0.0000  0.0000  0.0000 </r>
        <r>  0.0048  0.0122  0.0001  0.0009  0.0000  0.0000  0.0000  0.0000  0.0000 </r>
       </set>
       <set comment="band 37">
        <r>  0.0006  0.0008  0.0091  0.0042  0.0000  0.0000  0.0000  0.0000  0.0000 </r>
        <r>  0.0007  0.0009  0.0102  0.0038  0.0000  0.0000  0.0000  0.0000  0.0000 </r>
        <r>  0.0009  0.0005  0.0111  0.0068  0.0000  0.0000  0.0000  0.0000  0.0000 </r>
        <r>  0.0010  0.0006  0.0125  0.0061  0.0000  0.0000  0.0000  0.0000  0.0000 </r>
        <r>  0.0032  0.0027  0.0529  0.0231  0.0000  0.0000  0.0000  0.0000  0.0000 </r>
        <r>  0.0029  0.0024  0.0480  0.0254  0.0000  0.0000  0.0000  0.0000  0.0000 </r>
        <r>  0.0032  0.0027  0.0529  0.0228  0.0000  0.0000  0.0000  0.0000  0.0000 </r>
        <r>  0.0028  0.0024  0.0477  0.0254  0.0000  0.0000  0.0000  0.0000  0.0000 </r>
        <r>  0.0007  0.0004  0.0083  0.0067  0.0000  0.0000  0.0000  0.0000  0.0000 </r>
        <r>  0.0010  0.0005  0.0124  0.0046  0.0000  0.0000  0.0000  0.0000  0.0000 </r>
        <r>  0.0004  0.0007  0.0067  0.0042  0.0000  0.0000  0.0000  0.0000  0.0000 </r>
        <r>  0.0006  0.0009  0.0102  0.0027  0.0000  0.0000  0.0000  0.0000  0.0000 </r>
       </set>
       <set comment="band 38">
        <r>  0.0010  0.0012  0.0179  0.0030  0.0000  0.0000  0.0000  0.0000  0.0000 </r>
        <r>  0.0005  0.0007  0.0074  0.0076  0.0000  0.0000  0.0000  0.0000  0.0000 </r>
        <r>  0.0015  0.0008  0.0212  0.0050  0.0000  0.0000  0.0000  0.0000  0.0000 </r>
        <r>  0.0008  0.0004  0.0090  0.0110  0.0000  0.0000  0.0000  0.0000  0.0000 </r>
        <r>  0.0026  0.0023  0.0443  0.0221  0.0000  0.0000  0.0000  0.0000  0.0000 </r>
        <r>  0.0028  0.0024  0.0455  0.0211  0.0000  0.0000  0.0000  0.0000  0.0000 </r>
        <r>  0.0027  0.0023  0.0446  0.0214  0.0000  0.0000  0.0000  0.0000  0.0000 </r>
        <r>  0.0028  0.0025  0.0449  0.0215  0.0000  0.0000  0.0000  0.0000  0.0000 </r>
        <r>  0.0010  0.0005  0.0123  0.0072  0.0000  0.0000  0.0000  0.0000  0.0000 </r>
        <r>  0.0010  0.0006  0.0134  0.0065  0.0000  0.0000  0.0000  0.0000  0.0000 </r>
        <r>  0.0006  0.0009  0.0102  0.0047  0.0000  0.0000  0.0000  0.0000  0.0000 </r>
        <r>  0.0007  0.0009  0.0112  0.0042  0.0000  0.0000  0.0000  0.0000  0.0000 </r>
       </set>
       <set comment="band 39">
        <r>  0.0002  0.0001  0.0035  0.0344  0.0000  0.0000  0.0000  0.0000  0.0000 </r>
        <r>  0.0037  0.0024  0.0732  0.0016  0.0000  0.0000  0.0000  0.0000  0.0000 </r>
        <r>  0.0002  0.0001  0.0038  0.0381  0.0000  0.0000  0.0000  0.0000  0.0000 </r>
        <r>  0.0037  0.0026  0.0809  0.0018  0.0000  0.0000  0.0000  0.0000  0.0000 </r>
        <r>  0.0000  0.0000  0.0002  0.0003  0.0000  0.0000  0.0000  0.0000  0.0000 </r>
        <r>  0.0000  0.0000  0.0006  0.0002  0.0000  0.0000  0.0000  0.0000  0.0000 </r>
        <r>  0.0001  0.0000  0.0006  0.0003  0.0000  0.0000  0.0000  0.0000  0.0000 </r>
        <r>  0.0000  0.0000  0.0006  0.0006  0.0000  0.0000  0.0000  0.0000  0.0000 </r>
        <r>  0.0002  0.0001  0.0039  0.0313  0.0000  0.0000  0.0000  0.0000  0.0000 </r>
        <r>  0.0030  0.0022  0.0658  0.0018  0.0000  0.0000  0.0000  0.0000  0.0000 </r>
        <r>  0.0002  0.0001  0.0035  0.0279  0.0000  0.0000  0.0000  0.0000  0.0000 </r>
        <r>  0.0030  0.0020  0.0594  0.0017  0.0000  0.0000  0.0000  0.0000  0.0000 </r>
       </set>
       <set comment="band 40">
        <r>  0.0025  0.0016  0.0547  0.0083  0.0000  0.0000  0.0000  0.0000  0.0000 </r>
        <r>  0.0007  0.0004  0.0177  0.0258  0.0000  0.0000  0.0000  0.0000  0.0000 </r>
        <r>  0.0026  0.0016  0.0596  0.0075  0.0000  0.0000  0.0000  0.0000  0.0000 </r>
        <r>  0.0007  0.0003  0.0185  0.0267  0.0000  0.0000  0.0000  0.0000  0.0000 </r>
        <r>  0.0008  0.0002  0.0238  0.0036  0.0000  0.0000  0.0000  0.0000  0.0000 </r>
        <r>  0.0003  0.0002  0.0092  0.0105  0.0000  0.0000  0.0000  0.0000  0.0000 </r>
        <r>  0.0007  0.0003  0.0231  0.0056  0.0000  0.0000  0.0000  0.0000  0.0000 </r>
        <r>  0.0004  0.0001  0.0114  0.0098  0.0000  0.0000  0.0000  0.0000  0.0000 </r>
        <r>  0.0003  0.0003  0.0067  0.0160  0.0000  0.0000  0.0000  0.0000  0.0000 </r>
        <r>  0.0015  0.0008  0.0377  0.0033  0.0000  0.0000  0.0000  0.0000  0.0000 </r>
        <r>  0.0003  0.0002  0.0059  0.0165  0.0000  0.0000  0.0000  0.0000  0.0000 </r>
        <r>  0.0015  0.0008  0.0354  0.0028  0.0000  0.0000  0.0000  0.0000  0.0000 </r>
       </set>
      </set>
     </set>
    </set>
   </array>
  </projected>
 </calculation>
 <structure name="finalpos" >
  <crystal>
   <varray name="basis" >
    <v>       3.34288600       0.00000000       0.00000000 </v>
    <v>       0.00000000      32.60240900       0.00000000 </v>
    <v>       0.00000000       0.00000000       4.37483100 </v>
   </varray>
   <i name="volume">    476.79592902 </i>
   <varray name="rec_basis" >
    <v>       0.29914272       0.00000000       0.00000000 </v>
    <v>       0.00000000       0.03067258       0.00000000 </v>
    <v>       0.00000000       0.00000000       0.22858026 </v>
   </varray>
  </crystal>
  <varray name="positions" >
   <v>       0.00000000       0.30672600       0.91892400 </v>
   <v>       0.50000000       0.30672600       0.58107600 </v>
   <v>       0.00000000       0.37246700       0.08107600 </v>
   <v>       0.50000000       0.37246700       0.41892400 </v>
   <v>       0.50000000       0.46712900       0.41892400 </v>
   <v>       0.00000000       0.46712900       0.08107600 </v>
   <v>       0.50000000       0.53287100       0.58107600 </v>
   <v>       0.00000000       0.53287100       0.91892400 </v>
   <v>       0.00000000       0.62753300       0.91892400 </v>
   <v>       0.50000000       0.62753300       0.58107600 </v>
   <v>       0.00000000       0.69327400       0.08107600 </v>
   <v>       0.50000000       0.69327400       0.41892400 </v>
  </varray>
 </structure>
</modeling>
