<?xml version="1.0" encoding="ISO-8859-1"?>
<modeling>
 <generator>
  <i name="program" type="string">vasp </i>
  <i name="version" type="string">5.4.4.18Apr17-6-g9f103f2a35  </i>
  <i name="subversion" type="string">(build Jun 20 2017 18:00:50) complex            parallel </i>
  <i name="platform" type="string">LinuxIFC </i>
  <i name="date" type="string">2018 03 22 </i>
  <i name="time" type="string">15:18:11 </i>
 </generator>
 <incar>
  <i type="string" name="SYSTEM"> Generic Input</i>
  <i type="int" name="ISTART">     1</i>
  <i type="string" name="PREC">normal    ! precision level</i>
  <i type="int" name="IALGO">    53</i>
  <i type="string" name="ALGO"> Normal    ! SCF minimisation algorithm</i>
  <i type="int" name="INIWAV">     1</i>
  <i type="int" name="NELM">   200</i>
  <i type="int" name="NELMIN">     2</i>
  <i type="int" name="IBRION">     2</i>
  <i name="EDIFF">      0.00001000</i>
  <i name="EDIFFG">     -0.02000000</i>
  <i type="int" name="NSW">     0</i>
  <i type="int" name="ISIF">     3</i>
  <i type="int" name="IWAVPR">    11</i>
  <i type="int" name="NBLOCK">     1</i>
  <i type="int" name="KBLOCK">    40</i>
  <i name="ENCUT">    450.00000000</i>
  <i type="int" name="NEDOS">  2000</i>
  <i type="int" name="ISMEAR">     0</i>
  <i name="SIGMA">      0.01000000</i>
  <i type="int" name="NWRITE">     2</i>
  <i type="logical" name="LVHAR"> T  </i>
  <i type="int" name="LORBIT">    11</i>
  <i type="logical" name="LASPH"> T  </i>
  <i type="int" name="ICORELEVEL">     1</i>
  <v type="int" name="KPOINT_BSE">    -1     0     0     0</v>
  <i type="int" name="NELM">   200</i>
  <i type="string" name="GGA"> PE        ! PBEsol exchange-correlation</i>
  <i type="logical" name="LASPH"> T  </i>
 </incar>
 <structure name="primitive_cell" >
  <crystal>
   <varray name="basis" >
    <v>       3.34288600       0.00000000       0.00000000 </v>
    <v>       0.00000000      32.60240900       0.00000000 </v>
    <v>       0.00000000       0.00000000       4.37483100 </v>
   </varray>
   <i name="volume">    476.79592902 </i>
   <varray name="rec_basis" >
    <v>       0.29914272       0.00000000       0.00000000 </v>
    <v>       0.00000000       0.03067258       0.00000000 </v>
    <v>       0.00000000       0.00000000       0.22858026 </v>
   </varray>
  </crystal>
  <varray name="positions" >
   <v>       0.00000000       0.30672600      -0.08107600 </v>
   <v>      -0.50000000       0.30672600      -0.41892400 </v>
   <v>       0.00000000       0.37246700       0.08107600 </v>
   <v>      -0.50000000       0.37246700       0.41892400 </v>
   <v>       0.00000000       0.46712900      -0.08107600 </v>
   <v>      -0.50000000       0.46712900      -0.41892400 </v>
   <v>       0.00000000      -0.46712900       0.08107600 </v>
   <v>      -0.50000000      -0.46712900       0.41892400 </v>
   <v>       0.00000000      -0.37246700      -0.08107600 </v>
   <v>      -0.50000000      -0.37246700      -0.41892400 </v>
   <v>       0.00000000      -0.30672600       0.08107600 </v>
   <v>      -0.50000000      -0.30672600       0.41892400 </v>
  </varray>
 </structure>
 <varray name="primitive_index" >
  <v type="int" >        1 </v>
  <v type="int" >        2 </v>
  <v type="int" >        3 </v>
  <v type="int" >        4 </v>
  <v type="int" >        5 </v>
  <v type="int" >        6 </v>
  <v type="int" >        7 </v>
  <v type="int" >        8 </v>
  <v type="int" >        9 </v>
  <v type="int" >       10 </v>
  <v type="int" >       11 </v>
  <v type="int" >       12 </v>
 </varray>
 <kpoints>
  <generation param="Gamma">
   <v type="int" name="divisions">       8        1        6 </v>
   <v name="usershift">      0.00000000       0.00000000       0.00000000 </v>
   <v name="genvec1">      0.12500000       0.00000000       0.00000000 </v>
   <v name="genvec2">      0.00000000       1.00000000       0.00000000 </v>
   <v name="genvec3">      0.00000000       0.00000000       0.16666667 </v>
   <v name="shift">      0.00000000       0.00000000       0.00000000 </v>
  </generation>
  <varray name="kpointlist" >
   <v>       0.00000000       0.00000000       0.00000000 </v>
   <v>       0.12500000       0.00000000       0.00000000 </v>
   <v>       0.25000000       0.00000000       0.00000000 </v>
   <v>       0.37500000       0.00000000       0.00000000 </v>
   <v>       0.50000000       0.00000000       0.00000000 </v>
   <v>       0.00000000       0.00000000       0.16666667 </v>
   <v>       0.12500000       0.00000000       0.16666667 </v>
   <v>       0.25000000       0.00000000       0.16666667 </v>
   <v>       0.37500000       0.00000000       0.16666667 </v>
   <v>       0.50000000       0.00000000       0.16666667 </v>
   <v>       0.00000000       0.00000000       0.33333333 </v>
   <v>       0.12500000       0.00000000       0.33333333 </v>
   <v>       0.25000000       0.00000000       0.33333333 </v>
   <v>       0.37500000       0.00000000       0.33333333 </v>
   <v>       0.50000000       0.00000000       0.33333333 </v>
   <v>       0.00000000       0.00000000       0.50000000 </v>
   <v>       0.12500000       0.00000000       0.50000000 </v>
   <v>       0.25000000       0.00000000       0.50000000 </v>
   <v>       0.37500000       0.00000000       0.50000000 </v>
   <v>       0.50000000       0.00000000       0.50000000 </v>
  </varray>
  <varray name="weights" >
   <v>       0.02083333 </v>
   <v>       0.04166667 </v>
   <v>       0.04166667 </v>
   <v>       0.04166667 </v>
   <v>       0.02083333 </v>
   <v>       0.04166667 </v>
   <v>       0.08333333 </v>
   <v>       0.08333333 </v>
   <v>       0.08333333 </v>
   <v>       0.04166667 </v>
   <v>       0.04166667 </v>
   <v>       0.08333333 </v>
   <v>       0.08333333 </v>
   <v>       0.08333333 </v>
   <v>       0.04166667 </v>
   <v>       0.02083333 </v>
   <v>       0.04166667 </v>
   <v>       0.04166667 </v>
   <v>       0.04166667 </v>
   <v>       0.02083333 </v>
  </varray>
 </kpoints>
 <parameters>
  <separator name="general" >
   <i type="string" name="SYSTEM">Generic Input</i>
   <i type="logical" name="LCOMPAT"> F  </i>
  </separator>
  <separator name="electronic" >
   <i type="string" name="PREC">normal</i>
   <i name="ENMAX">    450.00000000</i>
   <i name="ENAUG">    342.92400000</i>
   <i name="EDIFF">      0.00001000</i>
   <i type="int" name="IALGO">    38</i>
   <i type="int" name="IWAVPR">    11</i>
   <i type="int" name="NBANDS">    40</i>
   <i name="NELECT">     60.00000000</i>
   <i type="int" name="TURBO">     0</i>
   <i type="int" name="IRESTART">     0</i>
   <i type="int" name="NREBOOT">     0</i>
   <i type="int" name="NMIN">     0</i>
   <i name="EREF">      0.00000000</i>
   <separator name="electronic smearing" >
    <i type="int" name="ISMEAR">     0</i>
    <i name="SIGMA">      0.01000000</i>
    <i name="KSPACING">      0.50000000</i>
    <i type="logical" name="KGAMMA"> T  </i>
   </separator>
   <separator name="electronic projectors" >
    <i type="logical" name="LREAL"> F  </i>
    <v name="ROPT">      0.00000000</v>
    <i type="int" name="LMAXPAW">  -100</i>
    <i type="int" name="LMAXMIX">     2</i>
    <i type="logical" name="NLSPLINE"> F  </i>
   </separator>
   <separator name="electronic startup" >
    <i type="int" name="ISTART">     0</i>
    <i type="int" name="ICHARG">     2</i>
    <i type="int" name="INIWAV">     1</i>
   </separator>
   <separator name="electronic spin" >
    <i type="int" name="ISPIN">     1</i>
    <i type="logical" name="LNONCOLLINEAR"> F  </i>
    <v name="MAGMOM">      1.00000000      1.00000000      1.00000000      1.00000000      1.00000000      1.00000000      1.00000000      1.00000000      1.00000000      1.00000000      1.00000000      1.00000000</v>
    <i name="NUPDOWN">     -1.00000000</i>
    <i type="logical" name="LSORBIT"> F  </i>
    <v name="SAXIS">      0.00000000      0.00000000      1.00000000</v>
    <i type="logical" name="LSPIRAL"> F  </i>
    <v name="QSPIRAL">      0.00000000      0.00000000      0.00000000</v>
    <i type="logical" name="LZEROZ"> F  </i>
   </separator>
   <separator name="electronic exchange-correlation" >
    <i type="logical" name="LASPH"> T  </i>
    <i type="logical" name="LMETAGGA"> F  </i>
   </separator>
   <separator name="electronic convergence" >
    <i type="int" name="NELM">   200</i>
    <i type="int" name="NELMDL">     0</i>
    <i type="int" name="NELMIN">     2</i>
    <i name="ENINI">    450.00000000</i>
    <separator name="electronic convergence detail" >
     <i type="logical" name="LDIAG"> T  </i>
     <i type="logical" name="LSUBROT"> F  </i>
     <i name="WEIMIN">      0.00000000</i>
     <i name="EBREAK">      0.00000006</i>
     <i name="DEPER">      0.30000000</i>
     <i type="int" name="NRMM">     4</i>
     <i name="TIME">      0.40000000</i>
    </separator>
   </separator>
   <separator name="electronic mixer" >
    <i name="AMIX">      0.40000000</i>
    <i name="BMIX">      1.00000000</i>
    <i name="AMIN">      0.10000000</i>
    <i name="AMIX_MAG">      1.60000000</i>
    <i name="BMIX_MAG">      1.00000000</i>
    <separator name="electronic mixer details" >
     <i type="int" name="IMIX">     4</i>
     <i type="logical" name="MIXFIRST"> F  </i>
     <i type="int" name="MAXMIX">   -45</i>
     <i name="WC">    100.00000000</i>
     <i type="int" name="INIMIX">     1</i>
     <i type="int" name="MIXPRE">     1</i>
     <i type="int" name="MREMOVE">     5</i>
    </separator>
   </separator>
   <separator name="electronic dipolcorrection" >
    <i type="logical" name="LDIPOL"> F  </i>
    <i type="logical" name="LMONO"> F  </i>
    <i type="int" name="IDIPOL">     0</i>
    <i name="EPSILON">      1.00000000</i>
    <v name="DIPOL">   -100.00000000   -100.00000000   -100.00000000</v>
    <i name="EFIELD">      0.00000000</i>
   </separator>
  </separator>
  <separator name="grids" >
   <i type="int" name="NGX">    18</i>
   <i type="int" name="NGY">   180</i>
   <i type="int" name="NGZ">    24</i>
   <i type="int" name="NGXF">    36</i>
   <i type="int" name="NGYF">   360</i>
   <i type="int" name="NGZF">    48</i>
   <i type="logical" name="ADDGRID"> F  </i>
  </separator>
  <separator name="ionic" >
   <i type="int" name="NSW">     0</i>
   <i type="int" name="IBRION">    -1</i>
   <i type="int" name="MDALGO">     0</i>
   <i type="int" name="ISIF">     3</i>
   <i name="PSTRESS">      0.00000000</i>
   <i name="EDIFFG">     -0.02000000</i>
   <i type="int" name="NFREE">     1</i>
   <i name="POTIM">      0.50000000</i>
   <i name="SMASS">     -3.00000000</i>
   <i name="SCALEE">      1.00000000</i>
  </separator>
  <separator name="ionic md" >
   <i name="TEBEG">      0.00010000</i>
   <i name="TEEND">      0.00010000</i>
   <i type="int" name="NBLOCK">     1</i>
   <i type="int" name="KBLOCK">     1</i>
   <i type="int" name="NPACO">   256</i>
   <i name="APACO">     16.00000000</i>
  </separator>
  <separator name="symmetry" >
   <i type="int" name="ISYM">     2</i>
   <i name="SYMPREC">      0.00001000</i>
  </separator>
  <separator name="dos" >
   <i type="int" name="LORBIT">    11</i>
   <v name="RWIGS">     -1.00000000</v>
   <i type="int" name="NEDOS">  2000</i>
   <i name="EMIN">     10.00000000</i>
   <i name="EMAX">    -10.00000000</i>
   <i name="EFERMI">      0.00000000</i>
  </separator>
  <separator name="writing" >
   <i type="int" name="NWRITE">     2</i>
   <i type="logical" name="LWAVE"> T  </i>
   <i type="logical" name="LDOWNSAMPLE"> F  </i>
   <i type="logical" name="LCHARG"> T  </i>
   <i type="logical" name="LPARD"> F  </i>
   <i type="logical" name="LVTOT"> F  </i>
   <i type="logical" name="LVHAR"> T  </i>
   <i type="logical" name="LELF"> F  </i>
   <i type="logical" name="LOPTICS"> F  </i>
   <v name="STM">      0.00000000      0.00000000      0.00000000      0.00000000      0.00000000      0.00000000      0.00000000</v>
  </separator>
  <separator name="performance" >
   <i type="int" name="NPAR">     4</i>
   <i type="int" name="NSIM">     4</i>
   <i type="int" name="NBLK">    -1</i>
   <i type="logical" name="LPLANE"> T  </i>
   <i type="logical" name="LSCALAPACK"> T  </i>
   <i type="logical" name="LSCAAWARE"> F  </i>
   <i type="logical" name="LSCALU"> F  </i>
   <i type="logical" name="LASYNC"> F  </i>
   <i type="logical" name="LORBITALREAL"> F  </i>
  </separator>
  <separator name="miscellaneous" >
   <i type="int" name="IDIOT">     3</i>
   <i type="int" name="ISPECIAL">     0</i>
   <i type="logical" name="LMUSIC"> F  </i>
   <v name="POMASS">     30.97400000</v>
   <v name="DARWINR">      0.00000000</v>
   <v name="DARWINV">      1.00000000</v>
   <i type="logical" name="LCORR"> T  </i>
  </separator>
  <i type="logical" name="GGA_COMPAT"> T  </i>
  <i type="logical" name="LBERRY"> F  </i>
  <i type="int" name="ICORELEVEL">     1</i>
  <i type="int" name="CLNT">     1</i>
  <i type="int" name="CLN">     1</i>
  <i type="int" name="CLL">     0</i>
  <i name="CLZ">      0.00000000</i>
  <i type="logical" name="LDAU"> F  </i>
  <i type="int" name="I_CONSTRAINED_M">     0</i>
  <separator name="electronic exchange-correlation" >
   <i type="string" name="GGA">PE</i>
   <i type="int" name="VOSKOWN">     0</i>
   <i type="logical" name="LHFCALC"> F  </i>
   <i type="string" name="PRECFOCK"></i>
   <i type="logical" name="LSYMGRAD"> F  </i>
   <i type="logical" name="LHFONE"> F  </i>
   <i type="logical" name="LRHFCALC"> F  </i>
   <i type="logical" name="LTHOMAS"> F  </i>
   <i type="logical" name="LMODELHF"> F  </i>
   <i name="ENCUT4O">     -1.00000000</i>
   <i type="int" name="EXXOEP">     0</i>
   <i type="int" name="FOURORBIT">     0</i>
   <i name="AEXX">      0.00000000</i>
   <i name="HFALPHA">      0.00000000</i>
   <i name="MCALPHA">      0.00000000</i>
   <i name="ALDAX">      1.00000000</i>
   <i name="AGGAX">      1.00000000</i>
   <i name="ALDAC">      1.00000000</i>
   <i name="AGGAC">      1.00000000</i>
   <i type="int" name="NKREDX">     1</i>
   <i type="int" name="NKREDY">     1</i>
   <i type="int" name="NKREDZ">     1</i>
   <i type="logical" name="SHIFTRED"> F  </i>
   <i type="logical" name="ODDONLY"> F  </i>
   <i type="logical" name="EVENONLY"> F  </i>
   <i type="int" name="LMAXFOCK">     0</i>
   <i type="int" name="NMAXFOCKAE">     0</i>
   <i type="logical" name="LFOCKAEDFT"> F  </i>
   <i name="HFSCREEN">      0.00000000</i>
   <i name="HFSCREENC">      0.00000000</i>
   <i type="int" name="NBANDSGWLOW">     0</i>
  </separator>
  <separator name="vdW DFT" >
   <i type="logical" name="LUSE_VDW"> F  </i>
   <i name="Zab_VDW">     -0.84910000</i>
   <i name="PARAM1">      0.12340000</i>
   <i name="PARAM2">      1.00000000</i>
   <i name="PARAM3">      0.00000000</i>
  </separator>
  <separator name="model GW" >
   <i type="int" name="MODEL_GW">     0</i>
   <i name="MODEL_EPS0">     23.83979645</i>
   <i name="MODEL_ALPHA">      1.00000000</i>
  </separator>
  <separator name="linear response parameters" >
   <i type="logical" name="LEPSILON"> F  </i>
   <i type="logical" name="LRPA"> F  </i>
   <i type="logical" name="LNABLA"> F  </i>
   <i type="logical" name="LVEL"> F  </i>
   <i type="int" name="KINTER">     0</i>
   <i name="CSHIFT">      0.10000000</i>
   <i name="OMEGAMAX">     -1.00000000</i>
   <i name="DEG_THRESHOLD">      0.00200000</i>
   <i name="RTIME">     -0.10000000</i>
   <i name="WPLASMAI">      0.00000000</i>
   <v name="DFIELD">      0.00000000      0.00000000      0.00000000</v>
   <v name="WPLASMA">      0.00000000      0.00000000      0.00000000      0.00000000      0.00000000      0.00000000      0.00000000      0.00000000      0.00000000</v>
  </separator>
  <separator name="orbital magnetization" >
   <i type="logical" name="NUCIND"> F  </i>
   <v name="MAGPOS">      0.00000000      0.00000000      0.00000000</v>
   <i type="logical" name="LNICSALL"> T  </i>
   <i type="logical" name="ORBITALMAG"> F  </i>
   <i type="logical" name="LMAGBLOCH"> F  </i>
   <i type="logical" name="LCHIMAG"> F  </i>
   <i type="logical" name="LGAUGE"> T  </i>
   <i type="int" name="MAGATOM">     0</i>
   <v name="MAGDIPOL">      0.00000000      0.00000000      0.00000000</v>
   <v name="AVECCONST">      0.00000000      0.00000000      0.00000000</v>
  </separator>
  <separator name="response functions" >
   <i type="logical" name="LADDER"> F  </i>
   <i type="logical" name="LRPAFORCE"> F  </i>
   <i type="logical" name="LFXC"> F  </i>
   <i type="logical" name="LHARTREE"> T  </i>
   <i type="int" name="IBSE">     0</i>
   <v type="int" name="KPOINT">    -1     0     0     0</v>
   <i type="logical" name="LTCTE"> F  </i>
   <i type="logical" name="LTETE"> F  </i>
   <i type="logical" name="LTRIPLET"> F  </i>
   <i type="logical" name="LFXCEPS"> F  </i>
   <i type="logical" name="LFXHEG"> F  </i>
   <i type="int" name="NATURALO">     2</i>
   <i type="logical" name="L2ORDER"> F  </i>
   <i type="logical" name="LMP2LT"> F  </i>
   <i type="logical" name="LUSEW"> F  </i>
   <i name="ENCUTGW">     -2.00000000</i>
   <i name="ENCUTGWSOFT">     -2.00000000</i>
   <i name="ENCUTLF">     -1.00000000</i>
   <i type="int" name="LMAXMP2">    -1</i>
   <i name="SCISSOR">      0.00000000</i>
   <i type="int" name="NOMEGA">     0</i>
   <i type="int" name="NOMEGAR">     0</i>
   <i type="int" name="NBANDSGW">    -1</i>
   <i type="int" name="NBANDSO">    -1</i>
   <i type="int" name="NBANDSV">    -1</i>
   <i type="int" name="NELM">   200</i>
   <i type="int" name="NELMHF">     1</i>
   <i type="int" name="DIM">     3</i>
   <i type="int" name="ANTIRES">     0</i>
   <i name="OMEGAMAX">    -30.00000000</i>
   <i name="OMEGAMIN">    -30.00000000</i>
   <i name="OMEGATL">   -200.00000000</i>
   <i type="int" name="OMEGAGRID">   140</i>
   <i name="CSHIFT">     -0.10000000</i>
   <i type="logical" name="SELFENERGY"> F  </i>
   <i type="logical" name="LSPECTRAL"> F  </i>
   <i type="logical" name="LSPECTRALGW"> F  </i>
   <i type="logical" name="LSINGLES"> F  </i>
   <i type="logical" name="LFERMIGW"> F  </i>
   <i type="logical" name="ODDONLYGW"> F  </i>
   <i type="logical" name="EVENONLYGW"> F  </i>
   <i type="int" name="NKREDLFX">     1</i>
   <i type="int" name="NKREDLFY">     1</i>
   <i type="int" name="NKREDLFZ">     1</i>
   <i type="int" name="MAXMEM">  2800</i>
   <i type="int" name="TELESCOPE">     0</i>
   <i type="int" name="TAUPAR">     1</i>
   <i type="int" name="OMEGAPAR">    -1</i>
   <i name="LAMBDA">      1.00000000</i>
  </separator>
  <separator name="External order field" >
   <i name="OFIELD_KAPPA">      0.00000000</i>
   <v name="OFIELD_K">      0.00000000      0.00000000      0.00000000</v>
   <i name="OFIELD_Q6_NEAR">      0.00000000</i>
   <i name="OFIELD_Q6_FAR">      0.00000000</i>
   <i name="OFIELD_A">      0.00000000</i>
  </separator>
 </parameters>
 <atominfo>
  <atoms>      12 </atoms>
  <types>       1 </types>
  <array name="atoms" >
   <dimension dim="1">ion</dimension>
   <field type="string">element</field>
   <field type="int">atomtype</field>
   <set>
    <rc><c>P </c><c>   1</c></rc>
    <rc><c>P </c><c>   1</c></rc>
    <rc><c>P </c><c>   1</c></rc>
    <rc><c>P </c><c>   1</c></rc>
    <rc><c>P </c><c>   1</c></rc>
    <rc><c>P </c><c>   1</c></rc>
    <rc><c>P </c><c>   1</c></rc>
    <rc><c>P </c><c>   1</c></rc>
    <rc><c>P </c><c>   1</c></rc>
    <rc><c>P </c><c>   1</c></rc>
    <rc><c>P </c><c>   1</c></rc>
    <rc><c>P </c><c>   1</c></rc>
   </set>
  </array>
  <array name="atomtypes" >
   <dimension dim="1">type</dimension>
   <field type="int">atomspertype</field>
   <field type="string">element</field>
   <field>mass</field>
   <field>valence</field>
   <field type="string">pseudopotential</field>
   <set>
    <rc><c>  12</c><c>P </c><c>     30.97400000</c><c>      5.00000000</c><c>  PAW_PBE P 06Sep2000                   </c></rc>
   </set>
  </array>
 </atominfo>
 <structure name="initialpos" >
  <crystal>
   <varray name="basis" >
    <v>       3.34288600       0.00000000       0.00000000 </v>
    <v>       0.00000000      32.60240900       0.00000000 </v>
    <v>       0.00000000       0.00000000       4.37483100 </v>
   </varray>
   <i name="volume">    476.79592902 </i>
   <varray name="rec_basis" >
    <v>       0.29914272       0.00000000       0.00000000 </v>
    <v>       0.00000000       0.03067258       0.00000000 </v>
    <v>       0.00000000       0.00000000       0.22858026 </v>
   </varray>
  </crystal>
  <varray name="positions" >
   <v>       0.00000000       0.30672600       0.91892400 </v>
   <v>       0.50000000       0.30672600       0.58107600 </v>
   <v>       0.00000000       0.37246700       0.08107600 </v>
   <v>       0.50000000       0.37246700       0.41892400 </v>
   <v>       0.00000000       0.46712900       0.91892400 </v>
   <v>       0.50000000       0.46712900       0.58107600 </v>
   <v>       0.00000000       0.53287100       0.08107600 </v>
   <v>       0.50000000       0.53287100       0.41892400 </v>
   <v>       0.00000000       0.62753300       0.91892400 </v>
   <v>       0.50000000       0.62753300       0.58107600 </v>
   <v>       0.00000000       0.69327400       0.08107600 </v>
   <v>       0.50000000       0.69327400       0.41892400 </v>
  </varray>
 </structure>
 <calculation>
  <scstep>
   <time name="dav">    0.90    0.90</time>
   <time name="total">    0.99    1.01</time>
   <energy>
    <i name="alphaZ">     30.28014394 </i>
    <i name="ewald">  14975.37070712 </i>
    <i name="hartreedc"> -16930.57457869 </i>
    <i name="XCdc">     40.42313226 </i>
    <i name="pawpsdc">   1677.12035881 </i>
    <i name="pawaedc">  -1579.18296132 </i>
    <i name="eentropy">     -0.00039002 </i>
    <i name="bandstr">     28.84882786 </i>
    <i name="atom">   2112.49373795 </i>
    <i name="e_fr_energy">    354.77897789 </i>
    <i name="e_wo_entrp">    354.77936791 </i>
    <i name="e_0_energy">    354.77917290 </i>
   </energy>
  </scstep>
  <scstep>
   <time name="dav">    1.16    1.16</time>
   <time name="total">    1.16    1.16</time>
   <energy>
    <i name="e_fr_energy">    -24.33744682 </i>
    <i name="e_wo_entrp">    -24.33730846 </i>
    <i name="e_0_energy">    -24.33737764 </i>
   </energy>
  </scstep>
  <scstep>
   <time name="dav">    1.13    1.13</time>
   <time name="total">    1.13    1.13</time>
   <energy>
    <i name="e_fr_energy">    -63.07279066 </i>
    <i name="e_wo_entrp">    -63.07248271 </i>
    <i name="e_0_energy">    -63.07263669 </i>
   </energy>
  </scstep>
  <scstep>
   <time name="dav">    1.23    1.23</time>
   <time name="total">    1.23    1.23</time>
   <energy>
    <i name="e_fr_energy">    -64.53699449 </i>
    <i name="e_wo_entrp">    -64.53667534 </i>
    <i name="e_0_energy">    -64.53683491 </i>
   </energy>
  </scstep>
  <scstep>
   <time name="dav">    1.21    1.22</time>
   <time name="total">    1.26    1.27</time>
   <energy>
    <i name="e_fr_energy">    -64.57479742 </i>
    <i name="e_wo_entrp">    -64.57449827 </i>
    <i name="e_0_energy">    -64.57464784 </i>
   </energy>
  </scstep>
  <scstep>
   <time name="dav">    1.07    1.08</time>
   <time name="total">    1.21    1.21</time>
   <energy>
    <i name="e_fr_energy">    -64.24048505 </i>
    <i name="e_wo_entrp">    -64.24023865 </i>
    <i name="e_0_energy">    -64.24036185 </i>
   </energy>
  </scstep>
  <scstep>
   <time name="dav">    1.05    1.05</time>
   <time name="total">    1.18    1.18</time>
   <energy>
    <i name="e_fr_energy">    -64.09414239 </i>
    <i name="e_wo_entrp">    -64.09386067 </i>
    <i name="e_0_energy">    -64.09400153 </i>
   </energy>
  </scstep>
  <scstep>
   <time name="dav">    1.09    1.09</time>
   <time name="total">    1.22    1.23</time>
   <energy>
    <i name="e_fr_energy">    -64.09505761 </i>
    <i name="e_wo_entrp">    -64.09480745 </i>
    <i name="e_0_energy">    -64.09493253 </i>
   </energy>
  </scstep>
  <scstep>
   <time name="dav">    1.18    1.18</time>
   <time name="total">    1.32    1.32</time>
   <energy>
    <i name="e_fr_energy">    -64.09476320 </i>
    <i name="e_wo_entrp">    -64.09451793 </i>
    <i name="e_0_energy">    -64.09464057 </i>
   </energy>
  </scstep>
  <scstep>
   <time name="dav">    1.06    1.06</time>
   <time name="total">    1.20    1.20</time>
   <energy>
    <i name="e_fr_energy">    -64.09451276 </i>
    <i name="e_wo_entrp">    -64.09427250 </i>
    <i name="e_0_energy">    -64.09439263 </i>
   </energy>
  </scstep>
  <scstep>
   <time name="dav">    1.09    1.10</time>
   <time name="total">    1.23    1.23</time>
   <energy>
    <i name="e_fr_energy">    -64.09443209 </i>
    <i name="e_wo_entrp">    -64.09419132 </i>
    <i name="e_0_energy">    -64.09431170 </i>
   </energy>
  </scstep>
  <scstep>
   <time name="dav">    1.03    1.03</time>
   <time name="total">    1.16    1.16</time>
   <energy>
    <i name="e_fr_energy">    -64.09450263 </i>
    <i name="e_wo_entrp">    -64.09426171 </i>
    <i name="e_0_energy">    -64.09438217 </i>
   </energy>
  </scstep>
  <scstep>
   <time name="dav">    1.00    1.00</time>
   <time name="total">    1.13    1.14</time>
   <energy>
    <i name="e_fr_energy">    -64.09464705 </i>
    <i name="e_wo_entrp">    -64.09440460 </i>
    <i name="e_0_energy">    -64.09452583 </i>
   </energy>
  </scstep>
  <scstep>
   <time name="dav">    0.92    0.92</time>
   <time name="total">    1.06    1.06</time>
   <energy>
    <i name="e_fr_energy">    -64.09477815 </i>
    <i name="e_wo_entrp">    -64.09453506 </i>
    <i name="e_0_energy">    -64.09465661 </i>
   </energy>
  </scstep>
  <scstep>
   <time name="dav">    0.93    0.93</time>
   <time name="total">    1.06    1.07</time>
   <energy>
    <i name="e_fr_energy">    -64.09501849 </i>
    <i name="e_wo_entrp">    -64.09477422 </i>
    <i name="e_0_energy">    -64.09489635 </i>
   </energy>
  </scstep>
  <scstep>
   <time name="dav">    0.81    0.82</time>
   <time name="total">    0.95    0.95</time>
   <energy>
    <i name="e_fr_energy">    -64.09505154 </i>
    <i name="e_wo_entrp">    -64.09480742 </i>
    <i name="e_0_energy">    -64.09492948 </i>
   </energy>
  </scstep>
  <scstep>
   <time name="dav">    0.81    0.82</time>
   <time name="total">    0.95    0.95</time>
   <energy>
    <i name="e_fr_energy">    -64.09511329 </i>
    <i name="e_wo_entrp">    -64.09486930 </i>
    <i name="e_0_energy">    -64.09499130 </i>
   </energy>
  </scstep>
  <scstep>
   <time name="dav">    0.77    0.77</time>
   <time name="total">    0.91    0.91</time>
   <energy>
    <i name="e_fr_energy">    -64.09512716 </i>
    <i name="e_wo_entrp">    -64.09488316 </i>
    <i name="e_0_energy">    -64.09500516 </i>
   </energy>
  </scstep>
  <scstep>
   <time name="dav">    0.79    0.79</time>
   <time name="total">    0.93    0.93</time>
   <energy>
    <i name="e_fr_energy">    -64.09514658 </i>
    <i name="e_wo_entrp">    -64.09490253 </i>
    <i name="e_0_energy">    -64.09502456 </i>
   </energy>
  </scstep>
  <scstep>
   <time name="dav">    0.77    0.77</time>
   <time name="total">    0.94    0.94</time>
   <energy>
    <i name="alphaZ">     30.28014394 </i>
    <i name="ewald">  14975.37070712 </i>
    <i name="hartreedc"> -16966.55887193 </i>
    <i name="XCdc">     43.26721297 </i>
    <i name="pawpsdc">   6359.83721791 </i>
    <i name="pawaedc">  -6262.81466310 </i>
    <i name="eentropy">     -0.00024408 </i>
    <i name="bandstr">   -355.97039694 </i>
    <i name="atom">   2112.49373795 </i>
    <i name="e_fr_energy">    -64.09515617 </i>
    <i name="e_wo_entrp">    -64.09491209 </i>
    <i name="e_0_energy">    -64.09503413 </i>
   </energy>
  </scstep>
  <structure>
   <crystal>
    <varray name="basis" >
     <v>       3.34288600       0.00000000       0.00000000 </v>
     <v>       0.00000000      32.60240900       0.00000000 </v>
     <v>       0.00000000       0.00000000       4.37483100 </v>
    </varray>
    <i name="volume">    476.79592902 </i>
    <varray name="rec_basis" >
     <v>       0.29914272       0.00000000       0.00000000 </v>
     <v>       0.00000000       0.03067258       0.00000000 </v>
     <v>       0.00000000       0.00000000       0.22858026 </v>
    </varray>
   </crystal>
   <varray name="positions" >
    <v>       0.00000000       0.30672600       0.91892400 </v>
    <v>       0.50000000       0.30672600       0.58107600 </v>
    <v>       0.00000000       0.37246700       0.08107600 </v>
    <v>       0.50000000       0.37246700       0.41892400 </v>
    <v>       0.00000000       0.46712900       0.91892400 </v>
    <v>       0.50000000       0.46712900       0.58107600 </v>
    <v>       0.00000000       0.53287100       0.08107600 </v>
    <v>       0.50000000       0.53287100       0.41892400 </v>
    <v>       0.00000000       0.62753300       0.91892400 </v>
    <v>       0.50000000       0.62753300       0.58107600 </v>
    <v>       0.00000000       0.69327400       0.08107600 </v>
    <v>       0.50000000       0.69327400       0.41892400 </v>
   </varray>
  </structure>
  <varray name="forces" >
   <v>       0.00000000      -0.11903455      -0.14581429 </v>
   <v>       0.00000000      -0.11903455       0.14581429 </v>
   <v>       0.00000000      -0.09511724      -0.09609276 </v>
   <v>       0.00000000      -0.09511724       0.09609276 </v>
   <v>       0.00000000      -0.07979667       0.00702880 </v>
   <v>       0.00000000      -0.07979667      -0.00702880 </v>
   <v>       0.00000000       0.07979667      -0.00702880 </v>
   <v>      -0.00000000       0.07979667       0.00702880 </v>
   <v>       0.00000000       0.09511724       0.09609276 </v>
   <v>       0.00000000       0.09511724      -0.09609276 </v>
   <v>       0.00000000       0.11903455       0.14581429 </v>
   <v>       0.00000000       0.11903455      -0.14581429 </v>
  </varray>
  <varray name="stress" >
   <v>      -5.80613394       0.00000000       0.00000000 </v>
   <v>       0.00000000      16.39186763      -0.00000000 </v>
   <v>       0.00000000       0.00000000      -0.23424002 </v>
  </varray>
  <energy>
   <i name="e_fr_energy">    -66.18564535 </i>
   <i name="e_wo_entrp">    -66.18552331 </i>
   <i name="e_0_energy">     -0.00024408 </i>
  </energy>
  <time name="totalsc">   24.46   24.54</time>
  <eigenvalues>
   <array>
    <dimension dim="1">band</dimension>
    <dimension dim="2">kpoint</dimension>
    <dimension dim="3">spin</dimension>
    <field>eigene</field>
    <field>occ</field>
    <set>
     <set comment="spin 1">
      <set comment="kpoint 1">
       <r>  -14.9490    1.0000 </r>
       <r>  -14.7673    1.0000 </r>
       <r>  -14.7101    1.0000 </r>
       <r>  -12.4762    1.0000 </r>
       <r>  -12.1657    1.0000 </r>
       <r>  -12.0077    1.0000 </r>
       <r>   -8.7192    1.0000 </r>
       <r>   -8.5530    1.0000 </r>
       <r>   -8.5098    1.0000 </r>
       <r>   -6.0589    1.0000 </r>
       <r>   -5.6239    1.0000 </r>
       <r>   -5.1776    1.0000 </r>
       <r>   -4.7888    1.0000 </r>
       <r>   -4.5832    1.0000 </r>
       <r>   -4.2696    1.0000 </r>
       <r>   -4.1763    1.0000 </r>
       <r>   -4.0371    1.0000 </r>
       <r>   -3.8463    1.0000 </r>
       <r>   -3.4876    1.0000 </r>
       <r>   -3.3264    1.0000 </r>
       <r>   -3.2896    1.0000 </r>
       <r>   -2.0113    1.0000 </r>
       <r>   -1.8272    1.0000 </r>
       <r>   -1.6796    1.0000 </r>
       <r>   -1.6221    1.0000 </r>
       <r>   -1.5630    1.0000 </r>
       <r>   -1.1207    1.0000 </r>
       <r>   -0.5619    1.0000 </r>
       <r>    0.3330    1.0000 </r>
       <r>    0.9021    1.0000 </r>
       <r>    1.0180    1.0000 </r>
       <r>    1.4397    0.0000 </r>
       <r>    1.4946    0.0000 </r>
       <r>    1.6364    0.0000 </r>
       <r>    1.6661    0.0000 </r>
       <r>    1.9291    0.0000 </r>
       <r>    2.6512    0.0000 </r>
       <r>    2.8599    0.0000 </r>
       <r>    2.8987    0.0000 </r>
       <r>    3.6027    0.0000 </r>
      </set>
      <set comment="kpoint 2">
       <r>  -14.7672    1.0000 </r>
       <r>  -14.5857    1.0000 </r>
       <r>  -14.5287    1.0000 </r>
       <r>  -12.2877    1.0000 </r>
       <r>  -11.9770    1.0000 </r>
       <r>  -11.8188    1.0000 </r>
       <r>   -8.8812    1.0000 </r>
       <r>   -8.7150    1.0000 </r>
       <r>   -8.6721    1.0000 </r>
       <r>   -5.9048    1.0000 </r>
       <r>   -5.4729    1.0000 </r>
       <r>   -5.0685    1.0000 </r>
       <r>   -5.0400    1.0000 </r>
       <r>   -4.5884    1.0000 </r>
       <r>   -4.4278    1.0000 </r>
       <r>   -4.2467    1.0000 </r>
       <r>   -4.2246    1.0000 </r>
       <r>   -4.0809    1.0000 </r>
       <r>   -4.0388    1.0000 </r>
       <r>   -4.0249    1.0000 </r>
       <r>   -3.8815    1.0000 </r>
       <r>   -2.5575    1.0000 </r>
       <r>   -2.3210    1.0000 </r>
       <r>   -2.1994    1.0000 </r>
       <r>   -1.9399    1.0000 </r>
       <r>   -1.5831    1.0000 </r>
       <r>   -1.0113    1.0000 </r>
       <r>   -0.6604    1.0000 </r>
       <r>    0.2479    1.0000 </r>
       <r>    1.0489    0.4947 </r>
       <r>    1.0669    0.0053 </r>
       <r>    1.6322    0.0000 </r>
       <r>    1.7809    0.0000 </r>
       <r>    2.7405    0.0000 </r>
       <r>    2.8157    0.0000 </r>
       <r>    2.8702    0.0000 </r>
       <r>    2.8908    0.0000 </r>
       <r>    3.0107    0.0000 </r>
       <r>    3.1281    0.0000 </r>
       <r>    3.8314    0.0000 </r>
      </set>
      <set comment="kpoint 3">
       <r>  -14.2269    1.0000 </r>
       <r>  -14.0462    1.0000 </r>
       <r>  -13.9902    1.0000 </r>
       <r>  -11.7252    1.0000 </r>
       <r>  -11.4139    1.0000 </r>
       <r>  -11.2549    1.0000 </r>
       <r>   -9.5732    1.0000 </r>
       <r>   -9.4048    1.0000 </r>
       <r>   -9.3604    1.0000 </r>
       <r>   -6.2888    1.0000 </r>
       <r>   -5.9147    1.0000 </r>
       <r>   -5.6859    1.0000 </r>
       <r>   -5.4640    1.0000 </r>
       <r>   -5.0475    1.0000 </r>
       <r>   -5.0106    1.0000 </r>
       <r>   -4.8436    1.0000 </r>
       <r>   -4.8038    1.0000 </r>
       <r>   -4.6676    1.0000 </r>
       <r>   -3.9889    1.0000 </r>
       <r>   -3.6010    1.0000 </r>
       <r>   -3.4377    1.0000 </r>
       <r>   -2.9600    1.0000 </r>
       <r>   -2.6439    1.0000 </r>
       <r>   -2.3739    1.0000 </r>
       <r>   -1.8862    1.0000 </r>
       <r>   -1.4355    1.0000 </r>
       <r>   -1.0672    1.0000 </r>
       <r>   -0.8265    1.0000 </r>
       <r>   -0.1972    1.0000 </r>
       <r>    0.5598    1.0000 </r>
       <r>    1.3123    0.0000 </r>
       <r>    1.3690    0.0000 </r>
       <r>    1.6357    0.0000 </r>
       <r>    1.6688    0.0000 </r>
       <r>    2.2644    0.0000 </r>
       <r>    2.4304    0.0000 </r>
       <r>    3.1404    0.0000 </r>
       <r>    3.4669    0.0000 </r>
       <r>    3.5285    0.0000 </r>
       <r>    3.6517    0.0000 </r>
      </set>
      <set comment="kpoint 4">
       <r>  -13.3471    1.0000 </r>
       <r>  -13.1679    1.0000 </r>
       <r>  -13.1135    1.0000 </r>
       <r>  -10.8181    1.0000 </r>
       <r>  -10.7986    1.0000 </r>
       <r>  -10.6451    1.0000 </r>
       <r>  -10.5967    1.0000 </r>
       <r>  -10.4855    1.0000 </r>
       <r>  -10.3245    1.0000 </r>
       <r>   -7.9718    1.0000 </r>
       <r>   -7.6405    1.0000 </r>
       <r>   -7.4598    1.0000 </r>
       <r>   -4.9313    1.0000 </r>
       <r>   -4.8472    1.0000 </r>
       <r>   -4.7692    1.0000 </r>
       <r>   -4.7365    1.0000 </r>
       <r>   -4.4928    1.0000 </r>
       <r>   -4.2596    1.0000 </r>
       <r>   -3.3997    1.0000 </r>
       <r>   -3.0778    1.0000 </r>
       <r>   -2.8102    1.0000 </r>
       <r>   -2.8023    1.0000 </r>
       <r>   -2.5649    1.0000 </r>
       <r>   -2.1938    1.0000 </r>
       <r>   -2.1432    1.0000 </r>
       <r>   -1.7031    1.0000 </r>
       <r>   -1.6135    1.0000 </r>
       <r>   -1.0449    1.0000 </r>
       <r>   -0.9400    1.0000 </r>
       <r>   -0.2989    1.0000 </r>
       <r>    1.1035    0.0000 </r>
       <r>    1.1980    0.0000 </r>
       <r>    1.4401    0.0000 </r>
       <r>    1.6580    0.0000 </r>
       <r>    1.9660    0.0000 </r>
       <r>    2.0751    0.0000 </r>
       <r>    2.3369    0.0000 </r>
       <r>    2.4229    0.0000 </r>
       <r>    2.5036    0.0000 </r>
       <r>    2.7400    0.0000 </r>
      </set>
      <set comment="kpoint 5">
       <r>  -12.1731    1.0000 </r>
       <r>  -12.1731    1.0000 </r>
       <r>  -11.9964    1.0000 </r>
       <r>  -11.9964    1.0000 </r>
       <r>  -11.9444    1.0000 </r>
       <r>  -11.9444    1.0000 </r>
       <r>   -9.5299    1.0000 </r>
       <r>   -9.5299    1.0000 </r>
       <r>   -9.2121    1.0000 </r>
       <r>   -9.2121    1.0000 </r>
       <r>   -9.0459    1.0000 </r>
       <r>   -9.0459    1.0000 </r>
       <r>   -4.5512    1.0000 </r>
       <r>   -4.5512    1.0000 </r>
       <r>   -4.3537    1.0000 </r>
       <r>   -4.3537    1.0000 </r>
       <r>   -4.3035    1.0000 </r>
       <r>   -4.3035    1.0000 </r>
       <r>   -2.9436    1.0000 </r>
       <r>   -2.9436    1.0000 </r>
       <r>   -2.8947    1.0000 </r>
       <r>   -2.8947    1.0000 </r>
       <r>   -2.2614    1.0000 </r>
       <r>   -2.2614    1.0000 </r>
       <r>   -2.1131    1.0000 </r>
       <r>   -2.1131    1.0000 </r>
       <r>   -1.5320    1.0000 </r>
       <r>   -1.5320    1.0000 </r>
       <r>   -1.0146    1.0000 </r>
       <r>   -1.0146    1.0000 </r>
       <r>    1.1875    0.0000 </r>
       <r>    1.1875    0.0000 </r>
       <r>    1.6077    0.0000 </r>
       <r>    1.6077    0.0000 </r>
       <r>    1.9630    0.0000 </r>
       <r>    1.9630    0.0000 </r>
       <r>    2.0065    0.0000 </r>
       <r>    2.0066    0.0000 </r>
       <r>    2.0845    0.0000 </r>
       <r>    2.0845    0.0000 </r>
      </set>
      <set comment="kpoint 6">
       <r>  -14.7919    1.0000 </r>
       <r>  -14.6127    1.0000 </r>
       <r>  -14.5584    1.0000 </r>
       <r>  -12.5575    1.0000 </r>
       <r>  -12.3022    1.0000 </r>
       <r>  -12.2065    1.0000 </r>
       <r>   -8.9238    1.0000 </r>
       <r>   -8.7870    1.0000 </r>
       <r>   -8.7580    1.0000 </r>
       <r>   -6.3797    1.0000 </r>
       <r>   -6.1455    1.0000 </r>
       <r>   -6.0993    1.0000 </r>
       <r>   -4.6155    1.0000 </r>
       <r>   -4.4758    1.0000 </r>
       <r>   -3.9215    1.0000 </r>
       <r>   -3.7324    1.0000 </r>
       <r>   -3.3629    1.0000 </r>
       <r>   -3.3515    1.0000 </r>
       <r>   -3.3469    1.0000 </r>
       <r>   -3.2047    1.0000 </r>
       <r>   -3.1711    1.0000 </r>
       <r>   -1.8798    1.0000 </r>
       <r>   -1.6938    1.0000 </r>
       <r>   -1.6540    1.0000 </r>
       <r>   -1.3786    1.0000 </r>
       <r>   -0.9999    1.0000 </r>
       <r>   -0.9009    1.0000 </r>
       <r>   -0.6259    1.0000 </r>
       <r>   -0.4785    1.0000 </r>
       <r>    0.1259    1.0000 </r>
       <r>    1.6486    0.0000 </r>
       <r>    1.7316    0.0000 </r>
       <r>    1.8325    0.0000 </r>
       <r>    1.9339    0.0000 </r>
       <r>    2.2113    0.0000 </r>
       <r>    2.3849    0.0000 </r>
       <r>    2.4318    0.0000 </r>
       <r>    2.5822    0.0000 </r>
       <r>    2.6068    0.0000 </r>
       <r>    3.3757    0.0000 </r>
      </set>
      <set comment="kpoint 7">
       <r>  -14.6112    1.0000 </r>
       <r>  -14.4323    1.0000 </r>
       <r>  -14.3782    1.0000 </r>
       <r>  -12.3738    1.0000 </r>
       <r>  -12.1201    1.0000 </r>
       <r>  -12.0265    1.0000 </r>
       <r>   -8.9877    1.0000 </r>
       <r>   -8.8546    1.0000 </r>
       <r>   -8.8316    1.0000 </r>
       <r>   -6.3428    1.0000 </r>
       <r>   -6.0488    1.0000 </r>
       <r>   -6.0437    1.0000 </r>
       <r>   -4.7617    1.0000 </r>
       <r>   -4.7464    1.0000 </r>
       <r>   -4.4465    1.0000 </r>
       <r>   -4.3392    1.0000 </r>
       <r>   -4.1412    1.0000 </r>
       <r>   -3.9156    1.0000 </r>
       <r>   -3.2337    1.0000 </r>
       <r>   -3.0662    1.0000 </r>
       <r>   -2.9578    1.0000 </r>
       <r>   -2.6781    1.0000 </r>
       <r>   -2.6000    1.0000 </r>
       <r>   -2.5946    1.0000 </r>
       <r>   -1.3685    1.0000 </r>
       <r>   -1.0594    1.0000 </r>
       <r>   -0.9075    1.0000 </r>
       <r>   -0.6080    1.0000 </r>
       <r>   -0.4677    1.0000 </r>
       <r>    0.1967    1.0000 </r>
       <r>    1.7712    0.0000 </r>
       <r>    2.1781    0.0000 </r>
       <r>    2.3867    0.0000 </r>
       <r>    2.6216    0.0000 </r>
       <r>    2.7503    0.0000 </r>
       <r>    2.8064    0.0000 </r>
       <r>    2.9731    0.0000 </r>
       <r>    3.1369    0.0000 </r>
       <r>    3.1782    0.0000 </r>
       <r>    3.7963    0.0000 </r>
      </set>
      <set comment="kpoint 8">
       <r>  -14.0753    1.0000 </r>
       <r>  -13.8971    1.0000 </r>
       <r>  -13.8438    1.0000 </r>
       <r>  -11.8343    1.0000 </r>
       <r>  -11.5897    1.0000 </r>
       <r>  -11.5085    1.0000 </r>
       <r>   -9.4308    1.0000 </r>
       <r>   -9.3034    1.0000 </r>
       <r>   -9.2896    1.0000 </r>
       <r>   -6.6980    1.0000 </r>
       <r>   -6.3527    1.0000 </r>
       <r>   -6.1836    1.0000 </r>
       <r>   -5.5653    1.0000 </r>
       <r>   -5.4731    1.0000 </r>
       <r>   -5.3450    1.0000 </r>
       <r>   -4.9904    1.0000 </r>
       <r>   -4.6590    1.0000 </r>
       <r>   -4.6063    1.0000 </r>
       <r>   -3.2945    1.0000 </r>
       <r>   -3.2695    1.0000 </r>
       <r>   -3.0061    1.0000 </r>
       <r>   -2.9058    1.0000 </r>
       <r>   -2.6897    1.0000 </r>
       <r>   -2.6164    1.0000 </r>
       <r>   -1.6094    1.0000 </r>
       <r>   -1.4490    1.0000 </r>
       <r>   -1.2819    1.0000 </r>
       <r>   -0.8995    1.0000 </r>
       <r>   -0.5453    1.0000 </r>
       <r>    0.1269    1.0000 </r>
       <r>    1.7660    0.0000 </r>
       <r>    1.8421    0.0000 </r>
       <r>    2.1011    0.0000 </r>
       <r>    2.2241    0.0000 </r>
       <r>    2.5816    0.0000 </r>
       <r>    2.5909    0.0000 </r>
       <r>    2.6883    0.0000 </r>
       <r>    2.9088    0.0000 </r>
       <r>    3.1175    0.0000 </r>
       <r>    4.0501    0.0000 </r>
      </set>
      <set comment="kpoint 9">
       <r>  -13.2077    1.0000 </r>
       <r>  -13.0308    1.0000 </r>
       <r>  -12.9789    1.0000 </r>
       <r>  -11.1373    1.0000 </r>
       <r>  -11.0010    1.0000 </r>
       <r>  -10.9802    1.0000 </r>
       <r>  -10.2872    1.0000 </r>
       <r>  -10.1107    1.0000 </r>
       <r>  -10.0362    1.0000 </r>
       <r>   -8.0699    1.0000 </r>
       <r>   -7.7671    1.0000 </r>
       <r>   -7.6201    1.0000 </r>
       <r>   -5.4838    1.0000 </r>
       <r>   -5.3661    1.0000 </r>
       <r>   -5.2754    1.0000 </r>
       <r>   -4.7044    1.0000 </r>
       <r>   -4.4538    1.0000 </r>
       <r>   -4.4486    1.0000 </r>
       <r>   -3.4187    1.0000 </r>
       <r>   -3.2153    1.0000 </r>
       <r>   -2.9750    1.0000 </r>
       <r>   -2.9441    1.0000 </r>
       <r>   -2.7844    1.0000 </r>
       <r>   -2.5761    1.0000 </r>
       <r>   -2.2235    1.0000 </r>
       <r>   -1.7657    1.0000 </r>
       <r>   -1.4803    1.0000 </r>
       <r>   -1.0941    1.0000 </r>
       <r>   -0.7869    1.0000 </r>
       <r>   -0.2180    1.0000 </r>
       <r>    1.4790    0.0000 </r>
       <r>    1.6890    0.0000 </r>
       <r>    1.9470    0.0000 </r>
       <r>    2.0463    0.0000 </r>
       <r>    2.1379    0.0000 </r>
       <r>    2.4100    0.0000 </r>
       <r>    2.5591    0.0000 </r>
       <r>    2.5683    0.0000 </r>
       <r>    2.8974    0.0000 </r>
       <r>    3.0000    0.0000 </r>
      </set>
      <set comment="kpoint 10">
       <r>  -12.0764    1.0000 </r>
       <r>  -12.0764    1.0000 </r>
       <r>  -11.9016    1.0000 </r>
       <r>  -11.9016    1.0000 </r>
       <r>  -11.8518    1.0000 </r>
       <r>  -11.8518    1.0000 </r>
       <r>   -9.5416    1.0000 </r>
       <r>   -9.5416    1.0000 </r>
       <r>   -9.2525    1.0000 </r>
       <r>   -9.2525    1.0000 </r>
       <r>   -9.1190    1.0000 </r>
       <r>   -9.1190    1.0000 </r>
       <r>   -4.8880    1.0000 </r>
       <r>   -4.8880    1.0000 </r>
       <r>   -4.6410    1.0000 </r>
       <r>   -4.6410    1.0000 </r>
       <r>   -4.5271    1.0000 </r>
       <r>   -4.5271    1.0000 </r>
       <r>   -3.6050    1.0000 </r>
       <r>   -3.6050    1.0000 </r>
       <r>   -3.2046    1.0000 </r>
       <r>   -3.2046    1.0000 </r>
       <r>   -2.7750    1.0000 </r>
       <r>   -2.7750    1.0000 </r>
       <r>   -1.9618    1.0000 </r>
       <r>   -1.9618    1.0000 </r>
       <r>   -1.2504    1.0000 </r>
       <r>   -1.2504    1.0000 </r>
       <r>   -0.5519    1.0000 </r>
       <r>   -0.5519    1.0000 </r>
       <r>    1.2380    0.0000 </r>
       <r>    1.2380    0.0000 </r>
       <r>    1.6665    0.0000 </r>
       <r>    1.6665    0.0000 </r>
       <r>    1.8549    0.0000 </r>
       <r>    1.8549    0.0000 </r>
       <r>    2.9929    0.0000 </r>
       <r>    2.9929    0.0000 </r>
       <r>    3.3400    0.0000 </r>
       <r>    3.3407    0.0000 </r>
      </set>
      <set comment="kpoint 11">
       <r>  -14.3374    1.0000 </r>
       <r>  -14.1681    1.0000 </r>
       <r>  -14.1246    1.0000 </r>
       <r>  -12.9364    1.0000 </r>
       <r>  -12.7812    1.0000 </r>
       <r>  -12.7795    1.0000 </r>
       <r>   -9.1317    1.0000 </r>
       <r>   -8.8467    1.0000 </r>
       <r>   -8.6638    1.0000 </r>
       <r>   -7.6880    1.0000 </r>
       <r>   -7.2831    1.0000 </r>
       <r>   -7.0211    1.0000 </r>
       <r>   -4.5240    1.0000 </r>
       <r>   -3.7971    1.0000 </r>
       <r>   -3.0139    1.0000 </r>
       <r>   -3.0070    1.0000 </r>
       <r>   -2.8665    1.0000 </r>
       <r>   -2.8436    1.0000 </r>
       <r>   -2.7085    1.0000 </r>
       <r>   -2.3639    1.0000 </r>
       <r>   -2.1472    1.0000 </r>
       <r>   -2.0986    1.0000 </r>
       <r>   -1.9681    1.0000 </r>
       <r>   -1.9490    1.0000 </r>
       <r>   -1.9443    1.0000 </r>
       <r>   -1.5998    1.0000 </r>
       <r>   -0.8746    1.0000 </r>
       <r>    0.0214    1.0000 </r>
       <r>    0.1182    1.0000 </r>
       <r>    0.1971    1.0000 </r>
       <r>    1.7388    0.0000 </r>
       <r>    1.8879    0.0000 </r>
       <r>    1.9692    0.0000 </r>
       <r>    2.0617    0.0000 </r>
       <r>    2.2226    0.0000 </r>
       <r>    2.2461    0.0000 </r>
       <r>    2.7871    0.0000 </r>
       <r>    3.1088    0.0000 </r>
       <r>    3.2646    0.0000 </r>
       <r>    3.2913    0.0000 </r>
      </set>
      <set comment="kpoint 12">
       <r>  -14.1602    1.0000 </r>
       <r>  -13.9910    1.0000 </r>
       <r>  -13.9475    1.0000 </r>
       <r>  -12.7629    1.0000 </r>
       <r>  -12.6089    1.0000 </r>
       <r>  -12.6081    1.0000 </r>
       <r>   -9.0842    1.0000 </r>
       <r>   -8.8081    1.0000 </r>
       <r>   -8.6392    1.0000 </r>
       <r>   -7.6086    1.0000 </r>
       <r>   -7.2099    1.0000 </r>
       <r>   -6.9538    1.0000 </r>
       <r>   -4.5145    1.0000 </r>
       <r>   -4.4045    1.0000 </r>
       <r>   -4.1991    1.0000 </r>
       <r>   -4.1135    1.0000 </r>
       <r>   -3.6203    1.0000 </r>
       <r>   -3.3478    1.0000 </r>
       <r>   -3.1225    1.0000 </r>
       <r>   -3.0921    1.0000 </r>
       <r>   -2.8163    1.0000 </r>
       <r>   -2.5879    1.0000 </r>
       <r>   -1.9129    1.0000 </r>
       <r>   -1.8891    1.0000 </r>
       <r>   -1.4402    1.0000 </r>
       <r>   -1.3031    1.0000 </r>
       <r>   -0.7744    1.0000 </r>
       <r>   -0.3816    1.0000 </r>
       <r>   -0.3058    1.0000 </r>
       <r>   -0.2515    1.0000 </r>
       <r>    2.4339    0.0000 </r>
       <r>    2.7642    0.0000 </r>
       <r>    2.8519    0.0000 </r>
       <r>    2.9987    0.0000 </r>
       <r>    3.0325    0.0000 </r>
       <r>    3.2745    0.0000 </r>
       <r>    3.2763    0.0000 </r>
       <r>    3.3047    0.0000 </r>
       <r>    3.4103    0.0000 </r>
       <r>    3.4173    0.0000 </r>
      </set>
      <set comment="kpoint 13">
       <r>  -13.6379    1.0000 </r>
       <r>  -13.4689    1.0000 </r>
       <r>  -13.4257    1.0000 </r>
       <r>  -12.2648    1.0000 </r>
       <r>  -12.1175    1.0000 </r>
       <r>  -12.1150    1.0000 </r>
       <r>   -9.1472    1.0000 </r>
       <r>   -8.9159    1.0000 </r>
       <r>   -8.8102    1.0000 </r>
       <r>   -7.6057    1.0000 </r>
       <r>   -7.2572    1.0000 </r>
       <r>   -7.0608    1.0000 </r>
       <r>   -5.7244    1.0000 </r>
       <r>   -5.5968    1.0000 </r>
       <r>   -5.5212    1.0000 </r>
       <r>   -4.8816    1.0000 </r>
       <r>   -4.7585    1.0000 </r>
       <r>   -4.7137    1.0000 </r>
       <r>   -3.7858    1.0000 </r>
       <r>   -3.2968    1.0000 </r>
       <r>   -2.9821    1.0000 </r>
       <r>   -2.5377    1.0000 </r>
       <r>   -2.1969    1.0000 </r>
       <r>   -2.1541    1.0000 </r>
       <r>   -1.4754    1.0000 </r>
       <r>   -1.3851    1.0000 </r>
       <r>   -1.2640    1.0000 </r>
       <r>   -1.0959    1.0000 </r>
       <r>   -0.9052    1.0000 </r>
       <r>   -0.4162    1.0000 </r>
       <r>    2.1205    0.0000 </r>
       <r>    2.4069    0.0000 </r>
       <r>    2.5458    0.0000 </r>
       <r>    2.7825    0.0000 </r>
       <r>    2.9694    0.0000 </r>
       <r>    3.0341    0.0000 </r>
       <r>    3.4674    0.0000 </r>
       <r>    3.6185    0.0000 </r>
       <r>    3.6769    0.0000 </r>
       <r>    4.2832    0.0000 </r>
      </set>
      <set comment="kpoint 14">
       <r>  -12.8113    1.0000 </r>
       <r>  -12.6424    1.0000 </r>
       <r>  -12.5990    1.0000 </r>
       <r>  -11.6199    1.0000 </r>
       <r>  -11.4737    1.0000 </r>
       <r>  -11.4731    1.0000 </r>
       <r>   -9.7305    1.0000 </r>
       <r>   -9.5399    1.0000 </r>
       <r>   -9.4898    1.0000 </r>
       <r>   -8.4358    1.0000 </r>
       <r>   -8.1913    1.0000 </r>
       <r>   -8.1077    1.0000 </r>
       <r>   -5.9475    1.0000 </r>
       <r>   -5.7574    1.0000 </r>
       <r>   -5.6147    1.0000 </r>
       <r>   -5.0993    1.0000 </r>
       <r>   -4.8468    1.0000 </r>
       <r>   -4.7702    1.0000 </r>
       <r>   -3.9831    1.0000 </r>
       <r>   -3.7845    1.0000 </r>
       <r>   -3.6842    1.0000 </r>
       <r>   -3.1793    1.0000 </r>
       <r>   -2.9809    1.0000 </r>
       <r>   -2.8728    1.0000 </r>
       <r>   -2.3313    1.0000 </r>
       <r>   -1.7353    1.0000 </r>
       <r>   -1.4748    1.0000 </r>
       <r>   -0.9735    1.0000 </r>
       <r>   -0.7586    1.0000 </r>
       <r>   -0.0889    1.0000 </r>
       <r>    1.9652    0.0000 </r>
       <r>    2.2527    0.0000 </r>
       <r>    2.2624    0.0000 </r>
       <r>    2.6454    0.0000 </r>
       <r>    2.9345    0.0000 </r>
       <r>    3.0799    0.0000 </r>
       <r>    3.5978    0.0000 </r>
       <r>    3.7376    0.0000 </r>
       <r>    3.9347    0.0000 </r>
       <r>    4.0224    0.0000 </r>
      </set>
      <set comment="kpoint 15">
       <r>  -11.8499    1.0000 </r>
       <r>  -11.8499    1.0000 </r>
       <r>  -11.6807    1.0000 </r>
       <r>  -11.6807    1.0000 </r>
       <r>  -11.6368    1.0000 </r>
       <r>  -11.6368    1.0000 </r>
       <r>   -9.6140    1.0000 </r>
       <r>   -9.6140    1.0000 </r>
       <r>   -9.3910    1.0000 </r>
       <r>   -9.3910    1.0000 </r>
       <r>   -9.3275    1.0000 </r>
       <r>   -9.3275    1.0000 </r>
       <r>   -5.2469    1.0000 </r>
       <r>   -5.2469    1.0000 </r>
       <r>   -4.9449    1.0000 </r>
       <r>   -4.9449    1.0000 </r>
       <r>   -4.7492    1.0000 </r>
       <r>   -4.7492    1.0000 </r>
       <r>   -4.3688    1.0000 </r>
       <r>   -4.3688    1.0000 </r>
       <r>   -4.0025    1.0000 </r>
       <r>   -4.0025    1.0000 </r>
       <r>   -3.6669    1.0000 </r>
       <r>   -3.6669    1.0000 </r>
       <r>   -1.9971    1.0000 </r>
       <r>   -1.9971    1.0000 </r>
       <r>   -1.1612    1.0000 </r>
       <r>   -1.1612    1.0000 </r>
       <r>   -0.3213    1.0000 </r>
       <r>   -0.3213    1.0000 </r>
       <r>    2.3273    0.0000 </r>
       <r>    2.3273    0.0000 </r>
       <r>    2.5544    0.0000 </r>
       <r>    2.5544    0.0000 </r>
       <r>    3.0019    0.0000 </r>
       <r>    3.0019    0.0000 </r>
       <r>    3.3100    0.0000 </r>
       <r>    3.3100    0.0000 </r>
       <r>    3.5797    0.0000 </r>
       <r>    3.5797    0.0000 </r>
      </set>
      <set comment="kpoint 16">
       <r>  -13.6524    1.0000 </r>
       <r>  -13.6524    1.0000 </r>
       <r>  -13.5499    1.0000 </r>
       <r>  -13.5499    1.0000 </r>
       <r>  -13.4294    1.0000 </r>
       <r>  -13.4294    1.0000 </r>
       <r>   -8.6894    1.0000 </r>
       <r>   -8.6894    1.0000 </r>
       <r>   -8.2976    1.0000 </r>
       <r>   -8.2976    1.0000 </r>
       <r>   -8.0212    1.0000 </r>
       <r>   -8.0212    1.0000 </r>
       <r>   -3.7739    1.0000 </r>
       <r>   -3.7739    1.0000 </r>
       <r>   -2.9078    1.0000 </r>
       <r>   -2.9078    1.0000 </r>
       <r>   -2.5308    1.0000 </r>
       <r>   -2.5308    1.0000 </r>
       <r>   -2.4561    1.0000 </r>
       <r>   -2.4561    1.0000 </r>
       <r>   -2.3229    1.0000 </r>
       <r>   -2.3229    1.0000 </r>
       <r>   -2.0677    1.0000 </r>
       <r>   -2.0677    1.0000 </r>
       <r>   -0.7088    1.0000 </r>
       <r>   -0.7088    1.0000 </r>
       <r>   -0.5792    1.0000 </r>
       <r>   -0.5792    1.0000 </r>
       <r>   -0.5302    1.0000 </r>
       <r>   -0.5302    1.0000 </r>
       <r>    1.9183    0.0000 </r>
       <r>    1.9183    0.0000 </r>
       <r>    2.2360    0.0000 </r>
       <r>    2.2360    0.0000 </r>
       <r>    2.4064    0.0000 </r>
       <r>    2.4064    0.0000 </r>
       <r>    3.3305    0.0000 </r>
       <r>    3.3305    0.0000 </r>
       <r>    3.5513    0.0000 </r>
       <r>    3.5582    0.0000 </r>
      </set>
      <set comment="kpoint 17">
       <r>  -13.4799    1.0000 </r>
       <r>  -13.4799    1.0000 </r>
       <r>  -13.3765    1.0000 </r>
       <r>  -13.3765    1.0000 </r>
       <r>  -13.2571    1.0000 </r>
       <r>  -13.2571    1.0000 </r>
       <r>   -8.6024    1.0000 </r>
       <r>   -8.6024    1.0000 </r>
       <r>   -8.2199    1.0000 </r>
       <r>   -8.2199    1.0000 </r>
       <r>   -7.9565    1.0000 </r>
       <r>   -7.9565    1.0000 </r>
       <r>   -3.8491    1.0000 </r>
       <r>   -3.8491    1.0000 </r>
       <r>   -3.7903    1.0000 </r>
       <r>   -3.7903    1.0000 </r>
       <r>   -3.6944    1.0000 </r>
       <r>   -3.6944    1.0000 </r>
       <r>   -3.5107    1.0000 </r>
       <r>   -3.5107    1.0000 </r>
       <r>   -2.7764    1.0000 </r>
       <r>   -2.7764    1.0000 </r>
       <r>   -2.0332    1.0000 </r>
       <r>   -2.0332    1.0000 </r>
       <r>   -0.6081    1.0000 </r>
       <r>   -0.6081    1.0000 </r>
       <r>   -0.4388    1.0000 </r>
       <r>   -0.4388    1.0000 </r>
       <r>   -0.4114    1.0000 </r>
       <r>   -0.4114    1.0000 </r>
       <r>    2.6316    0.0000 </r>
       <r>    2.6316    0.0000 </r>
       <r>    2.8257    0.0000 </r>
       <r>    2.8257    0.0000 </r>
       <r>    2.9049    0.0000 </r>
       <r>    2.9049    0.0000 </r>
       <r>    3.1526    0.0000 </r>
       <r>    3.1526    0.0000 </r>
       <r>    3.7900    0.0000 </r>
       <r>    3.7900    0.0000 </r>
      </set>
      <set comment="kpoint 18">
       <r>  -12.9786    1.0000 </r>
       <r>  -12.9786    1.0000 </r>
       <r>  -12.8711    1.0000 </r>
       <r>  -12.8711    1.0000 </r>
       <r>  -12.7563    1.0000 </r>
       <r>  -12.7563    1.0000 </r>
       <r>   -8.5215    1.0000 </r>
       <r>   -8.5215    1.0000 </r>
       <r>   -8.1979    1.0000 </r>
       <r>   -8.1979    1.0000 </r>
       <r>   -8.0118    1.0000 </r>
       <r>   -8.0118    1.0000 </r>
       <r>   -5.3907    1.0000 </r>
       <r>   -5.3907    1.0000 </r>
       <r>   -5.2606    1.0000 </r>
       <r>   -5.2606    1.0000 </r>
       <r>   -5.1552    1.0000 </r>
       <r>   -5.1552    1.0000 </r>
       <r>   -3.3517    1.0000 </r>
       <r>   -3.3517    1.0000 </r>
       <r>   -2.7452    1.0000 </r>
       <r>   -2.7452    1.0000 </r>
       <r>   -2.4605    1.0000 </r>
       <r>   -2.4605    1.0000 </r>
       <r>   -1.2861    1.0000 </r>
       <r>   -1.2861    1.0000 </r>
       <r>   -1.1819    1.0000 </r>
       <r>   -1.1819    1.0000 </r>
       <r>   -0.7653    1.0000 </r>
       <r>   -0.7653    1.0000 </r>
       <r>    2.8658    0.0000 </r>
       <r>    2.8658    0.0000 </r>
       <r>    3.2893    0.0000 </r>
       <r>    3.2893    0.0000 </r>
       <r>    3.4102    0.0000 </r>
       <r>    3.4102    0.0000 </r>
       <r>    3.8615    0.0000 </r>
       <r>    3.8617    0.0000 </r>
       <r>    3.9734    0.0000 </r>
       <r>    3.9754    0.0000 </r>
      </set>
      <set comment="kpoint 19">
       <r>  -12.2337    1.0000 </r>
       <r>  -12.2337    1.0000 </r>
       <r>  -12.1112    1.0000 </r>
       <r>  -12.1112    1.0000 </r>
       <r>  -12.0136    1.0000 </r>
       <r>  -12.0136    1.0000 </r>
       <r>   -9.0620    1.0000 </r>
       <r>   -9.0620    1.0000 </r>
       <r>   -8.8667    1.0000 </r>
       <r>   -8.8667    1.0000 </r>
       <r>   -8.7852    1.0000 </r>
       <r>   -8.7852    1.0000 </r>
       <r>   -5.7799    1.0000 </r>
       <r>   -5.7799    1.0000 </r>
       <r>   -5.5195    1.0000 </r>
       <r>   -5.5195    1.0000 </r>
       <r>   -5.3357    1.0000 </r>
       <r>   -5.3357    1.0000 </r>
       <r>   -3.7577    1.0000 </r>
       <r>   -3.7577    1.0000 </r>
       <r>   -3.5336    1.0000 </r>
       <r>   -3.5336    1.0000 </r>
       <r>   -3.4166    1.0000 </r>
       <r>   -3.4166    1.0000 </r>
       <r>   -2.0371    1.0000 </r>
       <r>   -2.0371    1.0000 </r>
       <r>   -1.3006    1.0000 </r>
       <r>   -1.3006    1.0000 </r>
       <r>   -0.4772    1.0000 </r>
       <r>   -0.4772    1.0000 </r>
       <r>    2.6753    0.0000 </r>
       <r>    2.6753    0.0000 </r>
       <r>    3.0593    0.0000 </r>
       <r>    3.0593    0.0000 </r>
       <r>    3.1753    0.0000 </r>
       <r>    3.1753    0.0000 </r>
       <r>    4.1626    0.0000 </r>
       <r>    4.1631    0.0000 </r>
       <r>    4.2143    0.0000 </r>
       <r>    4.2304    0.0000 </r>
      </set>
      <set comment="kpoint 20">
       <r>  -11.7119    1.0000 </r>
       <r>  -11.7119    1.0000 </r>
       <r>  -11.5469    1.0000 </r>
       <r>  -11.5469    1.0000 </r>
       <r>  -11.5075    1.0000 </r>
       <r>  -11.5075    1.0000 </r>
       <r>   -9.6875    1.0000 </r>
       <r>   -9.6875    1.0000 </r>
       <r>   -9.4993    1.0000 </r>
       <r>   -9.4993    1.0000 </r>
       <r>   -9.4695    1.0000 </r>
       <r>   -9.4695    1.0000 </r>
       <r>   -5.1099    1.0000 </r>
       <r>   -5.1099    1.0000 </r>
       <r>   -5.0234    1.0000 </r>
       <r>   -5.0234    1.0000 </r>
       <r>   -4.6994    1.0000 </r>
       <r>   -4.6994    1.0000 </r>
       <r>   -4.6820    1.0000 </r>
       <r>   -4.6820    1.0000 </r>
       <r>   -4.4775    1.0000 </r>
       <r>   -4.4775    1.0000 </r>
       <r>   -4.3636    1.0000 </r>
       <r>   -4.3636    1.0000 </r>
       <r>   -2.0072    1.0000 </r>
       <r>   -2.0072    1.0000 </r>
       <r>   -1.1170    1.0000 </r>
       <r>   -1.1170    1.0000 </r>
       <r>   -0.2430    1.0000 </r>
       <r>   -0.2430    1.0000 </r>
       <r>    2.1431    0.0000 </r>
       <r>    2.1431    0.0000 </r>
       <r>    2.7110    0.0000 </r>
       <r>    2.7110    0.0000 </r>
       <r>    2.9910    0.0000 </r>
       <r>    2.9910    0.0000 </r>
       <r>    4.6850    0.0000 </r>
       <r>    4.6904    0.0000 </r>
       <r>    4.8372    0.0000 </r>
       <r>    4.8500    0.0000 </r>
      </set>
     </set>
    </set>
   </array>
  </eigenvalues>
  <separator name="orbital magnetization" >
   <v name="MAGDIPOLOUT">      0.00000000      0.00000000      0.00000000</v>
  </separator>
  <dos>
   <i name="efermi">      1.04879204 </i>
   <total>
    <array>
     <dimension dim="1">gridpoints</dimension>
     <dimension dim="2">spin</dimension>
     <field>energy</field>
     <field>total</field>
     <field>integrated</field>
     <set>
      <set comment="spin 1">
       <r>   -15.9390     0.0000     0.0000 </r>
       <r>   -15.9281     0.0000     0.0000 </r>
       <r>   -15.9172     0.0000     0.0000 </r>
       <r>   -15.9063     0.0000     0.0000 </r>
       <r>   -15.8954     0.0000     0.0000 </r>
       <r>   -15.8845     0.0000     0.0000 </r>
       <r>   -15.8736     0.0000     0.0000 </r>
       <r>   -15.8627     0.0000     0.0000 </r>
       <r>   -15.8518     0.0000     0.0000 </r>
       <r>   -15.8409     0.0000     0.0000 </r>
       <r>   -15.8301     0.0000     0.0000 </r>
       <r>   -15.8192     0.0000     0.0000 </r>
       <r>   -15.8083     0.0000     0.0000 </r>
       <r>   -15.7974     0.0000     0.0000 </r>
       <r>   -15.7865     0.0000     0.0000 </r>
       <r>   -15.7756     0.0000     0.0000 </r>
       <r>   -15.7647     0.0000     0.0000 </r>
       <r>   -15.7538     0.0000     0.0000 </r>
       <r>   -15.7429     0.0000     0.0000 </r>
       <r>   -15.7320     0.0000     0.0000 </r>
       <r>   -15.7211     0.0000     0.0000 </r>
       <r>   -15.7102     0.0000     0.0000 </r>
       <r>   -15.6993     0.0000     0.0000 </r>
       <r>   -15.6884     0.0000     0.0000 </r>
       <r>   -15.6775     0.0000     0.0000 </r>
       <r>   -15.6666     0.0000     0.0000 </r>
       <r>   -15.6557     0.0000     0.0000 </r>
       <r>   -15.6448     0.0000     0.0000 </r>
       <r>   -15.6339     0.0000     0.0000 </r>
       <r>   -15.6230     0.0000     0.0000 </r>
       <r>   -15.6122     0.0000     0.0000 </r>
       <r>   -15.6013     0.0000     0.0000 </r>
       <r>   -15.5904     0.0000     0.0000 </r>
       <r>   -15.5795     0.0000     0.0000 </r>
       <r>   -15.5686     0.0000     0.0000 </r>
       <r>   -15.5577     0.0000     0.0000 </r>
       <r>   -15.5468     0.0000     0.0000 </r>
       <r>   -15.5359     0.0000     0.0000 </r>
       <r>   -15.5250     0.0000     0.0000 </r>
       <r>   -15.5141     0.0000     0.0000 </r>
       <r>   -15.5032     0.0000     0.0000 </r>
       <r>   -15.4923     0.0000     0.0000 </r>
       <r>   -15.4814     0.0000     0.0000 </r>
       <r>   -15.4705     0.0000     0.0000 </r>
       <r>   -15.4596     0.0000     0.0000 </r>
       <r>   -15.4487     0.0000     0.0000 </r>
       <r>   -15.4378     0.0000     0.0000 </r>
       <r>   -15.4269     0.0000     0.0000 </r>
       <r>   -15.4160     0.0000     0.0000 </r>
       <r>   -15.4051     0.0000     0.0000 </r>
       <r>   -15.3943     0.0000     0.0000 </r>
       <r>   -15.3834     0.0000     0.0000 </r>
       <r>   -15.3725     0.0000     0.0000 </r>
       <r>   -15.3616     0.0000     0.0000 </r>
       <r>   -15.3507     0.0000     0.0000 </r>
       <r>   -15.3398     0.0000     0.0000 </r>
       <r>   -15.3289     0.0000     0.0000 </r>
       <r>   -15.3180     0.0000     0.0000 </r>
       <r>   -15.3071     0.0000     0.0000 </r>
       <r>   -15.2962     0.0000     0.0000 </r>
       <r>   -15.2853     0.0000     0.0000 </r>
       <r>   -15.2744     0.0000     0.0000 </r>
       <r>   -15.2635     0.0000     0.0000 </r>
       <r>   -15.2526     0.0000     0.0000 </r>
       <r>   -15.2417     0.0000     0.0000 </r>
       <r>   -15.2308     0.0000     0.0000 </r>
       <r>   -15.2199     0.0000     0.0000 </r>
       <r>   -15.2090     0.0000     0.0000 </r>
       <r>   -15.1981     0.0000     0.0000 </r>
       <r>   -15.1873     0.0000     0.0000 </r>
       <r>   -15.1764     0.0000     0.0000 </r>
       <r>   -15.1655     0.0000     0.0000 </r>
       <r>   -15.1546     0.0000     0.0000 </r>
       <r>   -15.1437     0.0000     0.0000 </r>
       <r>   -15.1328     0.0000     0.0000 </r>
       <r>   -15.1219     0.0000     0.0000 </r>
       <r>   -15.1110     0.0000     0.0000 </r>
       <r>   -15.1001     0.0000     0.0000 </r>
       <r>   -15.0892     0.0000     0.0000 </r>
       <r>   -15.0783     0.0000     0.0000 </r>
       <r>   -15.0674     0.0000     0.0000 </r>
       <r>   -15.0565     0.0000     0.0000 </r>
       <r>   -15.0456     0.0000     0.0000 </r>
       <r>   -15.0347     0.0000     0.0000 </r>
       <r>   -15.0238     0.0000     0.0000 </r>
       <r>   -15.0129     0.0000     0.0000 </r>
       <r>   -15.0020     0.0000     0.0000 </r>
       <r>   -14.9911     0.0000     0.0000 </r>
       <r>   -14.9802     0.0000     0.0000 </r>
       <r>   -14.9694     0.0078     0.0001 </r>
       <r>   -14.9585     0.3427     0.0038 </r>
       <r>   -14.9476     1.8799     0.0243 </r>
       <r>   -14.9367     1.4411     0.0400 </r>
       <r>   -14.9258     0.1510     0.0416 </r>
       <r>   -14.9149     0.0019     0.0417 </r>
       <r>   -14.9040     0.0000     0.0417 </r>
       <r>   -14.8931     0.0000     0.0417 </r>
       <r>   -14.8822     0.0000     0.0417 </r>
       <r>   -14.8713     0.0000     0.0417 </r>
       <r>   -14.8604     0.0000     0.0417 </r>
       <r>   -14.8495     0.0000     0.0417 </r>
       <r>   -14.8386     0.0000     0.0417 </r>
       <r>   -14.8277     0.0000     0.0417 </r>
       <r>   -14.8168     0.0016     0.0417 </r>
       <r>   -14.8059     0.1790     0.0436 </r>
       <r>   -14.7950     2.3341     0.0691 </r>
       <r>   -14.7841     4.1877     0.1147 </r>
       <r>   -14.7732     3.1744     0.1493 </r>
       <r>   -14.7623     6.4268     0.2193 </r>
       <r>   -14.7515     2.6704     0.2484 </r>
       <r>   -14.7406     0.1472     0.2500 </r>
       <r>   -14.7297     0.0115     0.2501 </r>
       <r>   -14.7188     0.4062     0.2545 </r>
       <r>   -14.7079     1.9592     0.2759 </r>
       <r>   -14.6970     1.3253     0.2903 </r>
       <r>   -14.6861     0.1217     0.2917 </r>
       <r>   -14.6752     0.0013     0.2917 </r>
       <r>   -14.6643     0.0000     0.2917 </r>
       <r>   -14.6534     0.0000     0.2917 </r>
       <r>   -14.6425     0.0002     0.2917 </r>
       <r>   -14.6316     0.0586     0.2923 </r>
       <r>   -14.6207     2.2939     0.3173 </r>
       <r>   -14.6098    11.5237     0.4428 </r>
       <r>   -14.5989     8.4753     0.5352 </r>
       <r>   -14.5880     3.4073     0.5723 </r>
       <r>   -14.5771     3.9960     0.6158 </r>
       <r>   -14.5662     1.8377     0.6359 </r>
       <r>   -14.5553     4.1014     0.6806 </r>
       <r>   -14.5444     2.4647     0.7074 </r>
       <r>   -14.5336     1.9835     0.7290 </r>
       <r>   -14.5227     4.2625     0.7755 </r>
       <r>   -14.5118     1.4258     0.7910 </r>
       <r>   -14.5009     0.0621     0.7917 </r>
       <r>   -14.4900     0.0003     0.7917 </r>
       <r>   -14.4791     0.0000     0.7917 </r>
       <r>   -14.4682     0.0000     0.7917 </r>
       <r>   -14.4573     0.0031     0.7917 </r>
       <r>   -14.4464     0.3466     0.7955 </r>
       <r>   -14.4355     4.6031     0.8456 </r>
       <r>   -14.4246     8.2142     0.9351 </r>
       <r>   -14.4137     2.0642     0.9576 </r>
       <r>   -14.4028     0.0700     0.9584 </r>
       <r>   -14.3919     0.3959     0.9627 </r>
       <r>   -14.3810     4.8692     1.0157 </r>
       <r>   -14.3701     8.0850     1.1038 </r>
       <r>   -14.3592     1.8955     1.1245 </r>
       <r>   -14.3483     0.5146     1.1301 </r>
       <r>   -14.3374     3.3403     1.1665 </r>
       <r>   -14.3266     3.3651     1.2031 </r>
       <r>   -14.3157     0.4693     1.2082 </r>
       <r>   -14.3048     0.0080     1.2083 </r>
       <r>   -14.2939     0.0000     1.2083 </r>
       <r>   -14.2830     0.0000     1.2083 </r>
       <r>   -14.2721     0.0000     1.2083 </r>
       <r>   -14.2612     0.0000     1.2083 </r>
       <r>   -14.2503     0.0036     1.2084 </r>
       <r>   -14.2394     0.2926     1.2116 </r>
       <r>   -14.2285     2.8476     1.2426 </r>
       <r>   -14.2176     3.7851     1.2838 </r>
       <r>   -14.2067     0.7035     1.2915 </r>
       <r>   -14.1958     0.0167     1.2917 </r>
       <r>   -14.1849     0.0702     1.2924 </r>
       <r>   -14.1740     1.8554     1.3126 </r>
       <r>   -14.1631     9.0466     1.4112 </r>
       <r>   -14.1522     9.8740     1.5188 </r>
       <r>   -14.1413     2.1079     1.5418 </r>
       <r>   -14.1304     1.5482     1.5586 </r>
       <r>   -14.1195     4.2693     1.6051 </r>
       <r>   -14.1087     1.7304     1.6240 </r>
       <r>   -14.0978     0.1039     1.6251 </r>
       <r>   -14.0869     0.7743     1.6336 </r>
       <r>   -14.0760     6.3072     1.7023 </r>
       <r>   -14.0651     7.1084     1.7797 </r>
       <r>   -14.0542     2.0696     1.8023 </r>
       <r>   -14.0433     4.0804     1.8467 </r>
       <r>   -14.0324     2.4020     1.8729 </r>
       <r>   -14.0215     0.1918     1.8750 </r>
       <r>   -14.0106     0.0589     1.8756 </r>
       <r>   -13.9997     2.2899     1.9006 </r>
       <r>   -13.9888    11.5687     2.0266 </r>
       <r>   -13.9779     8.2219     2.1162 </r>
       <r>   -13.9670     0.8444     2.1254 </r>
       <r>   -13.9561     1.6860     2.1438 </r>
       <r>   -13.9452     7.8917     2.2297 </r>
       <r>   -13.9343     5.2123     2.2865 </r>
       <r>   -13.9234     0.4685     2.2916 </r>
       <r>   -13.9125     0.2281     2.2941 </r>
       <r>   -13.9016     3.7806     2.3353 </r>
       <r>   -13.8908     8.4890     2.4278 </r>
       <r>   -13.8799     2.6922     2.4571 </r>
       <r>   -13.8690     0.1136     2.4584 </r>
       <r>   -13.8581     0.3362     2.4620 </r>
       <r>   -13.8472     4.5398     2.5115 </r>
       <r>   -13.8363     8.2422     2.6013 </r>
       <r>   -13.8254     2.1079     2.6242 </r>
       <r>   -13.8145     0.0688     2.6250 </r>
       <r>   -13.8036     0.0003     2.6250 </r>
       <r>   -13.7927     0.0000     2.6250 </r>
       <r>   -13.7818     0.0000     2.6250 </r>
       <r>   -13.7709     0.0000     2.6250 </r>
       <r>   -13.7600     0.0000     2.6250 </r>
       <r>   -13.7491     0.0000     2.6250 </r>
       <r>   -13.7382     0.0000     2.6250 </r>
       <r>   -13.7273     0.0000     2.6250 </r>
       <r>   -13.7164     0.0000     2.6250 </r>
       <r>   -13.7055     0.0000     2.6250 </r>
       <r>   -13.6946     0.0000     2.6250 </r>
       <r>   -13.6837     0.0000     2.6250 </r>
       <r>   -13.6729     0.0146     2.6252 </r>
       <r>   -13.6620     0.6658     2.6324 </r>
       <r>   -13.6511     4.1937     2.6781 </r>
       <r>   -13.6402     8.1560     2.7670 </r>
       <r>   -13.6293     8.1989     2.8563 </r>
       <r>   -13.6184     1.6727     2.8745 </r>
       <r>   -13.6075     0.0445     2.8750 </r>
       <r>   -13.5966     0.0001     2.8750 </r>
       <r>   -13.5857     0.0000     2.8750 </r>
       <r>   -13.5748     0.0017     2.8750 </r>
       <r>   -13.5639     0.1830     2.8770 </r>
       <r>   -13.5530     2.3555     2.9027 </r>
       <r>   -13.5421     4.0820     2.9471 </r>
       <r>   -13.5312     0.9956     2.9580 </r>
       <r>   -13.5203     0.0309     2.9583 </r>
       <r>   -13.5094     0.0003     2.9583 </r>
       <r>   -13.4985     0.0652     2.9590 </r>
       <r>   -13.4876     2.1075     2.9820 </r>
       <r>   -13.4767    10.2041     3.0932 </r>
       <r>   -13.4658    12.8035     3.2327 </r>
       <r>   -13.4550     5.0469     3.2877 </r>
       <r>   -13.4441     0.5831     3.2940 </r>
       <r>   -13.4332     4.2959     3.3408 </r>
       <r>   -13.4223    12.4549     3.4765 </r>
       <r>   -13.4114     5.6145     3.5377 </r>
       <r>   -13.4005     0.3683     3.5417 </r>
       <r>   -13.3896     0.4932     3.5471 </r>
       <r>   -13.3787     5.3155     3.6050 </r>
       <r>   -13.3678     7.8409     3.6904 </r>
       <r>   -13.3569     2.2375     3.7148 </r>
       <r>   -13.3460     3.7033     3.7551 </r>
       <r>   -13.3351     3.0096     3.7879 </r>
       <r>   -13.3242     0.3393     3.7916 </r>
       <r>   -13.3133     0.0046     3.7917 </r>
       <r>   -13.3024     0.0000     3.7917 </r>
       <r>   -13.2915     0.0000     3.7917 </r>
       <r>   -13.2806     0.0067     3.7917 </r>
       <r>   -13.2697     0.5578     3.7978 </r>
       <r>   -13.2588     5.5916     3.8587 </r>
       <r>   -13.2480     7.6441     3.9420 </r>
       <r>   -13.2371     1.4626     3.9580 </r>
       <r>   -13.2262     0.1041     3.9591 </r>
       <r>   -13.2153     2.1118     3.9821 </r>
       <r>   -13.2044     8.2446     4.0719 </r>
       <r>   -13.1935     4.5355     4.1213 </r>
       <r>   -13.1826     0.4802     4.1266 </r>
       <r>   -13.1717     2.1352     4.1498 </r>
       <r>   -13.1608     4.1756     4.1953 </r>
       <r>   -13.1499     1.1532     4.2079 </r>
       <r>   -13.1390     0.0421     4.2083 </r>
       <r>   -13.1281     0.1477     4.2100 </r>
       <r>   -13.1172     2.1457     4.2333 </r>
       <r>   -13.1063     4.1708     4.2788 </r>
       <r>   -13.0954     1.1432     4.2912 </r>
       <r>   -13.0845     0.0402     4.2917 </r>
       <r>   -13.0736     0.0002     4.2917 </r>
       <r>   -13.0627     0.0000     4.2917 </r>
       <r>   -13.0518     0.0226     4.2919 </r>
       <r>   -13.0409     1.1440     4.3044 </r>
       <r>   -13.0301     7.1529     4.3823 </r>
       <r>   -13.0192     6.2227     4.4501 </r>
       <r>   -13.0083     0.7450     4.4582 </r>
       <r>   -12.9974     0.1398     4.4597 </r>
       <r>   -12.9865     4.0716     4.5041 </r>
       <r>   -12.9756    16.3883     4.6827 </r>
       <r>   -12.9647     9.2912     4.7839 </r>
       <r>   -12.9538     0.7607     4.7922 </r>
       <r>   -12.9429     1.3122     4.8065 </r>
       <r>   -12.9320     4.2338     4.8526 </r>
       <r>   -12.9211     1.9383     4.8737 </r>
       <r>   -12.9102     0.1178     4.8750 </r>
       <r>   -12.8993     0.0013     4.8750 </r>
       <r>   -12.8884     0.1094     4.8762 </r>
       <r>   -12.8775     2.6774     4.9054 </r>
       <r>   -12.8666     8.4854     4.9978 </r>
       <r>   -12.8557     3.7980     5.0392 </r>
       <r>   -12.8448     0.2253     5.0416 </r>
       <r>   -12.8339     0.0121     5.0418 </r>
       <r>   -12.8230     0.7351     5.0498 </r>
       <r>   -12.8122     6.1945     5.1173 </r>
       <r>   -12.8013     7.2028     5.1958 </r>
       <r>   -12.7904     2.3654     5.2215 </r>
       <r>   -12.7795     7.3790     5.3019 </r>
       <r>   -12.7686     9.8502     5.4092 </r>
       <r>   -12.7577    15.1401     5.5742 </r>
       <r>   -12.7468    10.7907     5.6917 </r>
       <r>   -12.7359     1.4919     5.7080 </r>
       <r>   -12.7250     0.0302     5.7083 </r>
       <r>   -12.7141     0.0001     5.7083 </r>
       <r>   -12.7032     0.0000     5.7083 </r>
       <r>   -12.6923     0.0000     5.7083 </r>
       <r>   -12.6814     0.0000     5.7083 </r>
       <r>   -12.6705     0.0005     5.7083 </r>
       <r>   -12.6596     0.1142     5.7096 </r>
       <r>   -12.6487     2.7355     5.7394 </r>
       <r>   -12.6378     8.4997     5.8320 </r>
       <r>   -12.6269     3.8702     5.8742 </r>
       <r>   -12.6160     4.5696     5.9239 </r>
       <r>   -12.6051    19.3069     6.1343 </r>
       <r>   -12.5943    17.5955     6.3260 </r>
       <r>   -12.5834     4.2896     6.3727 </r>
       <r>   -12.5725     0.3404     6.3764 </r>
       <r>   -12.5616     2.0428     6.3987 </r>
       <r>   -12.5507     4.2056     6.4445 </r>
       <r>   -12.5398     1.2226     6.4578 </r>
       <r>   -12.5289     0.0458     6.4583 </r>
       <r>   -12.5180     0.0002     6.4583 </r>
       <r>   -12.5071     0.0000     6.4583 </r>
       <r>   -12.4962     0.0090     6.4584 </r>
       <r>   -12.4853     0.3717     6.4625 </r>
       <r>   -12.4744     1.9189     6.4834 </r>
       <r>   -12.4635     1.3866     6.4985 </r>
       <r>   -12.4526     0.1366     6.5000 </r>
       <r>   -12.4417     0.0016     6.5000 </r>
       <r>   -12.4308     0.0000     6.5000 </r>
       <r>   -12.4199     0.0000     6.5000 </r>
       <r>   -12.4090     0.0000     6.5000 </r>
       <r>   -12.3981     0.0045     6.5000 </r>
       <r>   -12.3873     0.4391     6.5048 </r>
       <r>   -12.3764     5.0836     6.5602 </r>
       <r>   -12.3655     7.9677     6.6470 </r>
       <r>   -12.3546     1.7538     6.6661 </r>
       <r>   -12.3437     0.0488     6.6667 </r>
       <r>   -12.3328     0.0002     6.6667 </r>
       <r>   -12.3219     0.0202     6.6669 </r>
       <r>   -12.3110     0.7953     6.6756 </r>
       <r>   -12.3001     4.1997     6.7213 </r>
       <r>   -12.2892     5.5826     6.7821 </r>
       <r>   -12.2783     4.4341     6.8304 </r>
       <r>   -12.2674     5.7187     6.8927 </r>
       <r>   -12.2565     8.0203     6.9801 </r>
       <r>   -12.2456     2.4852     7.0072 </r>
       <r>   -12.2347     6.1430     7.0741 </r>
       <r>   -12.2238     7.3171     7.1538 </r>
       <r>   -12.2129     2.5402     7.1815 </r>
       <r>   -12.2020     4.2665     7.2280 </r>
       <r>   -12.1911     1.9464     7.2492 </r>
       <r>   -12.1802     1.3456     7.2639 </r>
       <r>   -12.1694     5.2539     7.3211 </r>
       <r>   -12.1585     4.2103     7.3670 </r>
       <r>   -12.1476     0.7154     7.3748 </r>
       <r>   -12.1367     0.2357     7.3773 </r>
       <r>   -12.1258     6.1194     7.4440 </r>
       <r>   -12.1149    27.6106     7.7448 </r>
       <r>   -12.1040    23.3615     7.9994 </r>
       <r>   -12.0931     3.9204     8.0421 </r>
       <r>   -12.0822     3.0939     8.0758 </r>
       <r>   -12.0713     8.5402     8.1688 </r>
       <r>   -12.0604     3.4428     8.2063 </r>
       <r>   -12.0495     0.1915     8.2084 </r>
       <r>   -12.0386     0.6637     8.2156 </r>
       <r>   -12.0277     6.3081     8.2844 </r>
       <r>   -12.0168    12.3340     8.4188 </r>
       <r>   -12.0059    12.0706     8.5503 </r>
       <r>   -11.9950     7.2737     8.6295 </r>
       <r>   -11.9841     4.2909     8.6763 </r>
       <r>   -11.9732     4.4946     8.7252 </r>
       <r>   -11.9623     2.1713     8.7489 </r>
       <r>   -11.9515     1.3235     8.7633 </r>
       <r>   -11.9406     4.1887     8.8089 </r>
       <r>   -11.9297     2.0983     8.8318 </r>
       <r>   -11.9188     0.2570     8.8346 </r>
       <r>   -11.9079     2.7667     8.8647 </r>
       <r>   -11.8970     8.5056     8.9574 </r>
       <r>   -11.8861     3.6953     8.9977 </r>
       <r>   -11.8752     0.2222     9.0001 </r>
       <r>   -11.8643     0.9004     9.0099 </r>
       <r>   -11.8534    10.1607     9.1206 </r>
       <r>   -11.8425    17.6965     9.3134 </r>
       <r>   -11.8316    11.9037     9.4431 </r>
       <r>   -11.8207     7.8267     9.5284 </r>
       <r>   -11.8098     4.2676     9.5749 </r>
       <r>   -11.7989     0.7591     9.5831 </r>
       <r>   -11.7880     0.0186     9.5833 </r>
       <r>   -11.7771     0.0001     9.5833 </r>
       <r>   -11.7662     0.0000     9.5833 </r>
       <r>   -11.7553     0.0001     9.5833 </r>
       <r>   -11.7444     0.0248     9.5836 </r>
       <r>   -11.7336     0.8921     9.5933 </r>
       <r>   -11.7227     4.4767     9.6421 </r>
       <r>   -11.7118     5.9355     9.7068 </r>
       <r>   -11.7009     3.5499     9.7454 </r>
       <r>   -11.6900     1.8549     9.7656 </r>
       <r>   -11.6791     7.5827     9.8483 </r>
       <r>   -11.6682     5.6882     9.9102 </r>
[...]
        <r>  0.0116  0.0016  0.0059  0.0084  0.0000  0.0000  0.0000  0.0000  0.0000 </r>
        <r>  0.0272  0.0038  0.0139  0.0036  0.0000  0.0000  0.0000  0.0000  0.0000 </r>
        <r>  0.0116  0.0016  0.0059  0.0084  0.0000  0.0000  0.0000  0.0000  0.0000 </r>
        <r>  0.0272  0.0038  0.0139  0.0036  0.0000  0.0000  0.0000  0.0000  0.0000 </r>
        <r>  0.0071  0.0039  0.0001  0.0000  0.0000  0.0000  0.0000  0.0000  0.0000 </r>
        <r>  0.0165  0.0092  0.0002  0.0000  0.0000  0.0000  0.0000  0.0000  0.0000 </r>
        <r>  0.0080  0.0000  0.0136  0.0233  0.0000  0.0000  0.0000  0.0000  0.0000 </r>
        <r>  0.0188  0.0000  0.0320  0.0100  0.0000  0.0000  0.0000  0.0000  0.0000 </r>
       </set>
       <set comment="band 25">
        <r>  0.0111  0.0222  0.0103  0.0020  0.0000  0.0000  0.0000  0.0000  0.0000 </r>
        <r>  0.0029  0.0058  0.0027  0.0078  0.0000  0.0000  0.0000  0.0000  0.0000 </r>
        <r>  0.0000  0.0263  0.0029  0.0008  0.0000  0.0000  0.0000  0.0000  0.0000 </r>
        <r>  0.0000  0.0069  0.0008  0.0032  0.0000  0.0000  0.0000  0.0000  0.0000 </r>
        <r>  0.0062  0.0587  0.0120  0.0027  0.0000  0.0000  0.0000  0.0000  0.0000 </r>
        <r>  0.0016  0.0153  0.0031  0.0104  0.0000  0.0000  0.0000  0.0000  0.0000 </r>
        <r>  0.0062  0.0587  0.0120  0.0027  0.0000  0.0000  0.0000  0.0000  0.0000 </r>
        <r>  0.0016  0.0153  0.0031  0.0104  0.0000  0.0000  0.0000  0.0000  0.0000 </r>
        <r>  0.0000  0.0263  0.0029  0.0008  0.0000  0.0000  0.0000  0.0000  0.0000 </r>
        <r>  0.0000  0.0069  0.0008  0.0032  0.0000  0.0000  0.0000  0.0000  0.0000 </r>
        <r>  0.0111  0.0222  0.0103  0.0020  0.0000  0.0000  0.0000  0.0000  0.0000 </r>
        <r>  0.0029  0.0058  0.0027  0.0078  0.0000  0.0000  0.0000  0.0000  0.0000 </r>
       </set>
       <set comment="band 26">
        <r>  0.0029  0.0058  0.0027  0.0078  0.0000  0.0000  0.0000  0.0000  0.0000 </r>
        <r>  0.0111  0.0222  0.0103  0.0020  0.0000  0.0000  0.0000  0.0000  0.0000 </r>
        <r>  0.0000  0.0069  0.0008  0.0032  0.0000  0.0000  0.0000  0.0000  0.0000 </r>
        <r>  0.0000  0.0263  0.0029  0.0008  0.0000  0.0000  0.0000  0.0000  0.0000 </r>
        <r>  0.0016  0.0153  0.0031  0.0104  0.0000  0.0000  0.0000  0.0000  0.0000 </r>
        <r>  0.0062  0.0587  0.0120  0.0027  0.0000  0.0000  0.0000  0.0000  0.0000 </r>
        <r>  0.0016  0.0153  0.0031  0.0104  0.0000  0.0000  0.0000  0.0000  0.0000 </r>
        <r>  0.0062  0.0587  0.0120  0.0027  0.0000  0.0000  0.0000  0.0000  0.0000 </r>
        <r>  0.0000  0.0069  0.0008  0.0032  0.0000  0.0000  0.0000  0.0000  0.0000 </r>
        <r>  0.0000  0.0263  0.0029  0.0008  0.0000  0.0000  0.0000  0.0000  0.0000 </r>
        <r>  0.0029  0.0058  0.0027  0.0078  0.0000  0.0000  0.0000  0.0000  0.0000 </r>
        <r>  0.0111  0.0222  0.0103  0.0020  0.0000  0.0000  0.0000  0.0000  0.0000 </r>
       </set>
       <set comment="band 27">
        <r>  0.0101  0.0685  0.0100  0.0015  0.0000  0.0000  0.0000  0.0000  0.0000 </r>
        <r>  0.0017  0.0116  0.0017  0.0086  0.0000  0.0000  0.0000  0.0000  0.0000 </r>
        <r>  0.0080  0.0663  0.0085  0.0013  0.0000  0.0000  0.0000  0.0000  0.0000 </r>
        <r>  0.0014  0.0113  0.0014  0.0074  0.0000  0.0000  0.0000  0.0000  0.0000 </r>
        <r>  0.0087  0.0011  0.0011  0.0001  0.0000  0.0000  0.0000  0.0000  0.0000 </r>
        <r>  0.0015  0.0002  0.0002  0.0005  0.0000  0.0000  0.0000  0.0000  0.0000 </r>
        <r>  0.0087  0.0011  0.0011  0.0001  0.0000  0.0000  0.0000  0.0000  0.0000 </r>
        <r>  0.0015  0.0002  0.0002  0.0005  0.0000  0.0000  0.0000  0.0000  0.0000 </r>
        <r>  0.0080  0.0663  0.0085  0.0013  0.0000  0.0000  0.0000  0.0000  0.0000 </r>
        <r>  0.0014  0.0113  0.0014  0.0074  0.0000  0.0000  0.0000  0.0000  0.0000 </r>
        <r>  0.0101  0.0685  0.0100  0.0015  0.0000  0.0000  0.0000  0.0000  0.0000 </r>
        <r>  0.0017  0.0116  0.0017  0.0086  0.0000  0.0000  0.0000  0.0000  0.0000 </r>
       </set>
       <set comment="band 28">
        <r>  0.0017  0.0116  0.0017  0.0086  0.0000  0.0000  0.0000  0.0000  0.0000 </r>
        <r>  0.0101  0.0685  0.0100  0.0015  0.0000  0.0000  0.0000  0.0000  0.0000 </r>
        <r>  0.0014  0.0113  0.0014  0.0074  0.0000  0.0000  0.0000  0.0000  0.0000 </r>
        <r>  0.0080  0.0663  0.0085  0.0013  0.0000  0.0000  0.0000  0.0000  0.0000 </r>
        <r>  0.0015  0.0002  0.0002  0.0005  0.0000  0.0000  0.0000  0.0000  0.0000 </r>
        <r>  0.0087  0.0011  0.0011  0.0001  0.0000  0.0000  0.0000  0.0000  0.0000 </r>
        <r>  0.0015  0.0002  0.0002  0.0005  0.0000  0.0000  0.0000  0.0000  0.0000 </r>
        <r>  0.0087  0.0011  0.0011  0.0001  0.0000  0.0000  0.0000  0.0000  0.0000 </r>
        <r>  0.0014  0.0113  0.0014  0.0074  0.0000  0.0000  0.0000  0.0000  0.0000 </r>
        <r>  0.0080  0.0663  0.0085  0.0013  0.0000  0.0000  0.0000  0.0000  0.0000 </r>
        <r>  0.0017  0.0116  0.0017  0.0086  0.0000  0.0000  0.0000  0.0000  0.0000 </r>
        <r>  0.0101  0.0685  0.0100  0.0015  0.0000  0.0000  0.0000  0.0000  0.0000 </r>
       </set>
       <set comment="band 29">
        <r>  0.0011  0.0335  0.0018  0.0016  0.0000  0.0000  0.0000  0.0000  0.0000 </r>
        <r>  0.0010  0.0290  0.0016  0.0019  0.0000  0.0000  0.0000  0.0000  0.0000 </r>
        <r>  0.0103  0.0212  0.0043  0.0028  0.0000  0.0000  0.0000  0.0000  0.0000 </r>
        <r>  0.0089  0.0184  0.0037  0.0033  0.0000  0.0000  0.0000  0.0000  0.0000 </r>
        <r>  0.0076  0.0443  0.0041  0.0030  0.0000  0.0000  0.0000  0.0000  0.0000 </r>
        <r>  0.0066  0.0384  0.0035  0.0035  0.0000  0.0000  0.0000  0.0000  0.0000 </r>
        <r>  0.0076  0.0443  0.0041  0.0030  0.0000  0.0000  0.0000  0.0000  0.0000 </r>
        <r>  0.0066  0.0384  0.0035  0.0035  0.0000  0.0000  0.0000  0.0000  0.0000 </r>
        <r>  0.0103  0.0212  0.0043  0.0028  0.0000  0.0000  0.0000  0.0000  0.0000 </r>
        <r>  0.0089  0.0184  0.0037  0.0033  0.0000  0.0000  0.0000  0.0000  0.0000 </r>
        <r>  0.0011  0.0335  0.0018  0.0016  0.0000  0.0000  0.0000  0.0000  0.0000 </r>
        <r>  0.0010  0.0290  0.0016  0.0019  0.0000  0.0000  0.0000  0.0000  0.0000 </r>
       </set>
       <set comment="band 30">
        <r>  0.0010  0.0290  0.0016  0.0019  0.0000  0.0000  0.0000  0.0000  0.0000 </r>
        <r>  0.0011  0.0335  0.0018  0.0016  0.0000  0.0000  0.0000  0.0000  0.0000 </r>
        <r>  0.0089  0.0184  0.0037  0.0033  0.0000  0.0000  0.0000  0.0000  0.0000 </r>
        <r>  0.0103  0.0212  0.0043  0.0028  0.0000  0.0000  0.0000  0.0000  0.0000 </r>
        <r>  0.0066  0.0384  0.0035  0.0035  0.0000  0.0000  0.0000  0.0000  0.0000 </r>
        <r>  0.0076  0.0443  0.0041  0.0030  0.0000  0.0000  0.0000  0.0000  0.0000 </r>
        <r>  0.0066  0.0384  0.0035  0.0035  0.0000  0.0000  0.0000  0.0000  0.0000 </r>
        <r>  0.0076  0.0443  0.0041  0.0030  0.0000  0.0000  0.0000  0.0000  0.0000 </r>
        <r>  0.0089  0.0184  0.0037  0.0033  0.0000  0.0000  0.0000  0.0000  0.0000 </r>
        <r>  0.0103  0.0212  0.0043  0.0028  0.0000  0.0000  0.0000  0.0000  0.0000 </r>
        <r>  0.0010  0.0290  0.0016  0.0019  0.0000  0.0000  0.0000  0.0000  0.0000 </r>
        <r>  0.0011  0.0335  0.0018  0.0016  0.0000  0.0000  0.0000  0.0000  0.0000 </r>
       </set>
       <set comment="band 31">
        <r>  0.0025  0.0066  0.0021  0.0011  0.0000  0.0000  0.0000  0.0000  0.0000 </r>
        <r>  0.0019  0.0051  0.0016  0.0014  0.0000  0.0000  0.0000  0.0000  0.0000 </r>
        <r>  0.0007  0.0134  0.0001  0.0000  0.0000  0.0000  0.0000  0.0000  0.0000 </r>
        <r>  0.0006  0.0103  0.0001  0.0000  0.0000  0.0000  0.0000  0.0000  0.0000 </r>
        <r>  0.0031  0.0230  0.0008  0.0007  0.0000  0.0000  0.0000  0.0000  0.0000 </r>
        <r>  0.0024  0.0178  0.0006  0.0009  0.0000  0.0000  0.0000  0.0000  0.0000 </r>
        <r>  0.0031  0.0230  0.0008  0.0007  0.0000  0.0000  0.0000  0.0000  0.0000 </r>
        <r>  0.0024  0.0178  0.0006  0.0009  0.0000  0.0000  0.0000  0.0000  0.0000 </r>
        <r>  0.0007  0.0134  0.0001  0.0000  0.0000  0.0000  0.0000  0.0000  0.0000 </r>
        <r>  0.0006  0.0103  0.0001  0.0000  0.0000  0.0000  0.0000  0.0000  0.0000 </r>
        <r>  0.0025  0.0066  0.0021  0.0011  0.0000  0.0000  0.0000  0.0000  0.0000 </r>
        <r>  0.0019  0.0051  0.0016  0.0014  0.0000  0.0000  0.0000  0.0000  0.0000 </r>
       </set>
       <set comment="band 32">
        <r>  0.0019  0.0051  0.0016  0.0014  0.0000  0.0000  0.0000  0.0000  0.0000 </r>
        <r>  0.0025  0.0066  0.0021  0.0011  0.0000  0.0000  0.0000  0.0000  0.0000 </r>
        <r>  0.0006  0.0103  0.0001  0.0000  0.0000  0.0000  0.0000  0.0000  0.0000 </r>
        <r>  0.0007  0.0134  0.0001  0.0000  0.0000  0.0000  0.0000  0.0000  0.0000 </r>
        <r>  0.0024  0.0178  0.0006  0.0009  0.0000  0.0000  0.0000  0.0000  0.0000 </r>
        <r>  0.0031  0.0230  0.0008  0.0007  0.0000  0.0000  0.0000  0.0000  0.0000 </r>
        <r>  0.0024  0.0178  0.0006  0.0009  0.0000  0.0000  0.0000  0.0000  0.0000 </r>
        <r>  0.0031  0.0230  0.0008  0.0007  0.0000  0.0000  0.0000  0.0000  0.0000 </r>
        <r>  0.0006  0.0103  0.0001  0.0000  0.0000  0.0000  0.0000  0.0000  0.0000 </r>
        <r>  0.0007  0.0134  0.0001  0.0000  0.0000  0.0000  0.0000  0.0000  0.0000 </r>
        <r>  0.0019  0.0051  0.0016  0.0014  0.0000  0.0000  0.0000  0.0000  0.0000 </r>
        <r>  0.0025  0.0066  0.0021  0.0011  0.0000  0.0000  0.0000  0.0000  0.0000 </r>
       </set>
       <set comment="band 33">
        <r>  0.0077  0.0281  0.0025  0.0012  0.0000  0.0000  0.0000  0.0000  0.0000 </r>
        <r>  0.0037  0.0136  0.0012  0.0024  0.0000  0.0000  0.0000  0.0000  0.0000 </r>
        <r>  0.0054  0.0357  0.0010  0.0007  0.0000  0.0000  0.0000  0.0000  0.0000 </r>
        <r>  0.0026  0.0173  0.0005  0.0014  0.0000  0.0000  0.0000  0.0000  0.0000 </r>
        <r>  0.0008  0.0019  0.0036  0.0007  0.0000  0.0000  0.0000  0.0000  0.0000 </r>
        <r>  0.0004  0.0009  0.0018  0.0015  0.0000  0.0000  0.0000  0.0000  0.0000 </r>
        <r>  0.0008  0.0019  0.0036  0.0007  0.0000  0.0000  0.0000  0.0000  0.0000 </r>
        <r>  0.0004  0.0009  0.0018  0.0015  0.0000  0.0000  0.0000  0.0000  0.0000 </r>
        <r>  0.0054  0.0357  0.0010  0.0007  0.0000  0.0000  0.0000  0.0000  0.0000 </r>
        <r>  0.0026  0.0173  0.0005  0.0014  0.0000  0.0000  0.0000  0.0000  0.0000 </r>
        <r>  0.0077  0.0281  0.0025  0.0012  0.0000  0.0000  0.0000  0.0000  0.0000 </r>
        <r>  0.0037  0.0136  0.0012  0.0024  0.0000  0.0000  0.0000  0.0000  0.0000 </r>
       </set>
       <set comment="band 34">
        <r>  0.0037  0.0136  0.0012  0.0024  0.0000  0.0000  0.0000  0.0000  0.0000 </r>
        <r>  0.0077  0.0281  0.0025  0.0012  0.0000  0.0000  0.0000  0.0000  0.0000 </r>
        <r>  0.0026  0.0173  0.0005  0.0014  0.0000  0.0000  0.0000  0.0000  0.0000 </r>
        <r>  0.0054  0.0357  0.0010  0.0007  0.0000  0.0000  0.0000  0.0000  0.0000 </r>
        <r>  0.0004  0.0009  0.0018  0.0015  0.0000  0.0000  0.0000  0.0000  0.0000 </r>
        <r>  0.0008  0.0019  0.0036  0.0007  0.0000  0.0000  0.0000  0.0000  0.0000 </r>
        <r>  0.0004  0.0009  0.0018  0.0015  0.0000  0.0000  0.0000  0.0000  0.0000 </r>
        <r>  0.0008  0.0019  0.0036  0.0007  0.0000  0.0000  0.0000  0.0000  0.0000 </r>
        <r>  0.0026  0.0173  0.0005  0.0014  0.0000  0.0000  0.0000  0.0000  0.0000 </r>
        <r>  0.0054  0.0357  0.0010  0.0007  0.0000  0.0000  0.0000  0.0000  0.0000 </r>
        <r>  0.0037  0.0136  0.0012  0.0024  0.0000  0.0000  0.0000  0.0000  0.0000 </r>
        <r>  0.0077  0.0281  0.0025  0.0012  0.0000  0.0000  0.0000  0.0000  0.0000 </r>
       </set>
       <set comment="band 35">
        <r>  0.0026  0.0164  0.0001  0.0006  0.0000  0.0000  0.0000  0.0000  0.0000 </r>
        <r>  0.0053  0.0337  0.0002  0.0003  0.0000  0.0000  0.0000  0.0000  0.0000 </r>
        <r>  0.0053  0.0086  0.0019  0.0035  0.0000  0.0000  0.0000  0.0000  0.0000 </r>
        <r>  0.0109  0.0176  0.0040  0.0017  0.0000  0.0000  0.0000  0.0000  0.0000 </r>
        <r>  0.0059  0.0194  0.0010  0.0030  0.0000  0.0000  0.0000  0.0000  0.0000 </r>
        <r>  0.0121  0.0398  0.0021  0.0014  0.0000  0.0000  0.0000  0.0000  0.0000 </r>
        <r>  0.0059  0.0194  0.0010  0.0030  0.0000  0.0000  0.0000  0.0000  0.0000 </r>
        <r>  0.0121  0.0398  0.0021  0.0014  0.0000  0.0000  0.0000  0.0000  0.0000 </r>
        <r>  0.0053  0.0086  0.0019  0.0035  0.0000  0.0000  0.0000  0.0000  0.0000 </r>
        <r>  0.0109  0.0176  0.0040  0.0017  0.0000  0.0000  0.0000  0.0000  0.0000 </r>
        <r>  0.0026  0.0164  0.0001  0.0006  0.0000  0.0000  0.0000  0.0000  0.0000 </r>
        <r>  0.0053  0.0337  0.0002  0.0003  0.0000  0.0000  0.0000  0.0000  0.0000 </r>
       </set>
       <set comment="band 36">
        <r>  0.0053  0.0337  0.0002  0.0003  0.0000  0.0000  0.0000  0.0000  0.0000 </r>
        <r>  0.0026  0.0164  0.0001  0.0006  0.0000  0.0000  0.0000  0.0000  0.0000 </r>
        <r>  0.0109  0.0176  0.0040  0.0017  0.0000  0.0000  0.0000  0.0000  0.0000 </r>
        <r>  0.0053  0.0086  0.0019  0.0035  0.0000  0.0000  0.0000  0.0000  0.0000 </r>
        <r>  0.0121  0.0398  0.0021  0.0014  0.0000  0.0000  0.0000  0.0000  0.0000 </r>
        <r>  0.0059  0.0194  0.0010  0.0030  0.0000  0.0000  0.0000  0.0000  0.0000 </r>
        <r>  0.0121  0.0398  0.0021  0.0014  0.0000  0.0000  0.0000  0.0000  0.0000 </r>
        <r>  0.0059  0.0194  0.0010  0.0030  0.0000  0.0000  0.0000  0.0000  0.0000 </r>
        <r>  0.0109  0.0176  0.0040  0.0017  0.0000  0.0000  0.0000  0.0000  0.0000 </r>
        <r>  0.0053  0.0086  0.0019  0.0035  0.0000  0.0000  0.0000  0.0000  0.0000 </r>
        <r>  0.0053  0.0337  0.0002  0.0003  0.0000  0.0000  0.0000  0.0000  0.0000 </r>
        <r>  0.0026  0.0164  0.0001  0.0006  0.0000  0.0000  0.0000  0.0000  0.0000 </r>
       </set>
       <set comment="band 37">
        <r>  0.0005  0.0002  0.0060  0.0005  0.0000  0.0000  0.0000  0.0000  0.0000 </r>
        <r>  0.0001  0.0000  0.0009  0.0034  0.0000  0.0000  0.0000  0.0000  0.0000 </r>
        <r>  0.0004  0.0005  0.0084  0.0008  0.0000  0.0000  0.0000  0.0000  0.0000 </r>
        <r>  0.0001  0.0001  0.0012  0.0052  0.0000  0.0000  0.0000  0.0000  0.0000 </r>
        <r>  0.0049  0.0026  0.1138  0.0081  0.0000  0.0000  0.0000  0.0000  0.0000 </r>
        <r>  0.0008  0.0004  0.0175  0.0530  0.0000  0.0000  0.0000  0.0000  0.0000 </r>
        <r>  0.0049  0.0026  0.1140  0.0081  0.0000  0.0000  0.0000  0.0000  0.0000 </r>
        <r>  0.0008  0.0004  0.0175  0.0530  0.0000  0.0000  0.0000  0.0000  0.0000 </r>
        <r>  0.0004  0.0005  0.0090  0.0007  0.0000  0.0000  0.0000  0.0000  0.0000 </r>
        <r>  0.0001  0.0001  0.0011  0.0056  0.0000  0.0000  0.0000  0.0000  0.0000 </r>
        <r>  0.0005  0.0002  0.0065  0.0005  0.0000  0.0000  0.0000  0.0000  0.0000 </r>
        <r>  0.0001  0.0000  0.0008  0.0036  0.0000  0.0000  0.0000  0.0000  0.0000 </r>
       </set>
       <set comment="band 38">
        <r>  0.0000  0.0000  0.0006  0.0018  0.0000  0.0000  0.0000  0.0000  0.0000 </r>
        <r>  0.0003  0.0001  0.0030  0.0004  0.0000  0.0000  0.0000  0.0000  0.0000 </r>
        <r>  0.0000  0.0000  0.0009  0.0031  0.0000  0.0000  0.0000  0.0000  0.0000 </r>
        <r>  0.0002  0.0003  0.0044  0.0005  0.0000  0.0000  0.0000  0.0000  0.0000 </r>
        <r>  0.0007  0.0003  0.0154  0.0529  0.0000  0.0000  0.0000  0.0000  0.0000 </r>
        <r>  0.0050  0.0026  0.1143  0.0072  0.0000  0.0000  0.0000  0.0000  0.0000 </r>
        <r>  0.0007  0.0004  0.0156  0.0532  0.0000  0.0000  0.0000  0.0000  0.0000 </r>
        <r>  0.0049  0.0027  0.1149  0.0074  0.0000  0.0000  0.0000  0.0000  0.0000 </r>
        <r>  0.0002  0.0002  0.0047  0.0065  0.0000  0.0000  0.0000  0.0000  0.0000 </r>
        <r>  0.0005  0.0006  0.0109  0.0026  0.0000  0.0000  0.0000  0.0000  0.0000 </r>
        <r>  0.0002  0.0001  0.0038  0.0045  0.0000  0.0000  0.0000  0.0000  0.0000 </r>
        <r>  0.0006  0.0002  0.0083  0.0019  0.0000  0.0000  0.0000  0.0000  0.0000 </r>
       </set>
       <set comment="band 39">
        <r>  0.0022  0.0015  0.0436  0.0151  0.0000  0.0000  0.0000  0.0000  0.0000 </r>
        <r>  0.0017  0.0011  0.0323  0.0203  0.0000  0.0000  0.0000  0.0000  0.0000 </r>
        <r>  0.0023  0.0016  0.0488  0.0171  0.0000  0.0000  0.0000  0.0000  0.0000 </r>
        <r>  0.0017  0.0012  0.0358  0.0230  0.0000  0.0000  0.0000  0.0000  0.0000 </r>
        <r>  0.0000  0.0001  0.0002  0.0001  0.0000  0.0000  0.0000  0.0000  0.0000 </r>
        <r>  0.0000  0.0001  0.0001  0.0001  0.0000  0.0000  0.0000  0.0000  0.0000 </r>
        <r>  0.0000  0.0001  0.0004  0.0001  0.0000  0.0000  0.0000  0.0000  0.0000 </r>
        <r>  0.0000  0.0001  0.0001  0.0002  0.0000  0.0000  0.0000  0.0000  0.0000 </r>
        <r>  0.0017  0.0013  0.0356  0.0165  0.0000  0.0000  0.0000  0.0000  0.0000 </r>
        <r>  0.0016  0.0012  0.0343  0.0173  0.0000  0.0000  0.0000  0.0000  0.0000 </r>
        <r>  0.0017  0.0012  0.0324  0.0145  0.0000  0.0000  0.0000  0.0000  0.0000 </r>
        <r>  0.0016  0.0011  0.0310  0.0152  0.0000  0.0000  0.0000  0.0000  0.0000 </r>
       </set>
       <set comment="band 40">
        <r>  0.0017  0.0012  0.0363  0.0346  0.0000  0.0000  0.0000  0.0000  0.0000 </r>
        <r>  0.0034  0.0024  0.0763  0.0166  0.0000  0.0000  0.0000  0.0000  0.0000 </r>
        <r>  0.0018  0.0009  0.0425  0.0383  0.0000  0.0000  0.0000  0.0000  0.0000 </r>
        <r>  0.0038  0.0017  0.0909  0.0185  0.0000  0.0000  0.0000  0.0000  0.0000 </r>
        <r>  0.0001  0.0000  0.0022  0.0030  0.0000  0.0000  0.0000  0.0000  0.0000 </r>
        <r>  0.0004  0.0002  0.0095  0.0007  0.0000  0.0000  0.0000  0.0000  0.0000 </r>
        <r>  0.0001  0.0002  0.0029  0.0037  0.0000  0.0000  0.0000  0.0000  0.0000 </r>
        <r>  0.0004  0.0004  0.0106  0.0010  0.0000  0.0000  0.0000  0.0000  0.0000 </r>
        <r>  0.0000  0.0001  0.0002  0.0057  0.0000  0.0000  0.0000  0.0000  0.0000 </r>
        <r>  0.0006  0.0001  0.0157  0.0001  0.0000  0.0000  0.0000  0.0000  0.0000 </r>
        <r>  0.0000  0.0000  0.0002  0.0053  0.0000  0.0000  0.0000  0.0000  0.0000 </r>
        <r>  0.0004  0.0003  0.0121  0.0001  0.0000  0.0000  0.0000  0.0000  0.0000 </r>
       </set>
      </set>
     </set>
    </set>
   </array>
  </projected>
 </calculation>
 <structure name="finalpos" >
  <crystal>
   <varray name="basis" >
    <v>       3.34288600       0.00000000       0.00000000 </v>
    <v>       0.00000000      32.60240900       0.00000000 </v>
    <v>       0.00000000       0.00000000       4.37483100 </v>
   </varray>
   <i name="volume">    476.79592902 </i>
   <varray name="rec_basis" >
    <v>       0.29914272       0.00000000       0.00000000 </v>
    <v>       0.00000000       0.03067258       0.00000000 </v>
    <v>       0.00000000       0.00000000       0.22858026 </v>
   </varray>
  </crystal>
  <varray name="positions" >
   <v>       0.00000000       0.30672600       0.91892400 </v>
   <v>       0.50000000       0.30672600       0.58107600 </v>
   <v>       0.00000000       0.37246700       0.08107600 </v>
   <v>       0.50000000       0.37246700       0.41892400 </v>
   <v>       0.00000000       0.46712900       0.91892400 </v>
   <v>       0.50000000       0.46712900       0.58107600 </v>
   <v>       0.00000000       0.53287100       0.08107600 </v>
   <v>       0.50000000       0.53287100       0.41892400 </v>
   <v>       0.00000000       0.62753300       0.91892400 </v>
   <v>       0.50000000       0.62753300       0.58107600 </v>
   <v>       0.00000000       0.69327400       0.08107600 </v>
   <v>       0.50000000       0.69327400       0.41892400 </v>
  </varray>
 </structure>
</modeling>
