   12   12    1    1
  0.3973299E+02  0.3342886E-09  0.3260241E-08  0.4374831E-09  0.5000000E-15
  1.000000000000000E-004
  CAR 
 Generic Input                           
     60     20     40
 
  0.0000000E+00  0.0000000E+00  0.0000000E+00  0.2083333E-01
    1      -14.949048   1.000000
    2      -14.767253   1.000000
    3      -14.710057   1.000000
    4      -12.476225   1.000000
    5      -12.165657   1.000000
    6      -12.007669   1.000000
    7       -8.719208   1.000000
    8       -8.553004   1.000000
    9       -8.509808   1.000000
   10       -6.058934   1.000000
   11       -5.623859   1.000000
   12       -5.177607   1.000000
   13       -4.788831   1.000000
   14       -4.583164   1.000000
   15       -4.269560   1.000000
   16       -4.176313   1.000000
   17       -4.037119   1.000000
   18       -3.846323   1.000000
   19       -3.487592   1.000000
   20       -3.326399   1.000000
   21       -3.289633   1.000000
   22       -2.011277   1.000000
   23       -1.827158   1.000000
   24       -1.679568   1.000000
   25       -1.622062   1.000000
   26       -1.562952   1.000000
   27       -1.120695   1.000000
   28       -0.561935   1.000000
   29        0.333036   1.000000
   30        0.902087   1.000000
   31        1.017979   0.999993
   32        1.439691   0.000000
   33        1.494579   0.000000
   34        1.636413   0.000000
   35        1.666069   0.000000
   36        1.929110   0.000000
   37        2.651181   0.000000
   38        2.859935   0.000000
   39        2.898749   0.000000
   40        3.602733   0.000000
 
  0.1250000E+00  0.0000000E+00  0.0000000E+00  0.4166667E-01
    1      -14.767196   1.000000
    2      -14.585663   1.000000
    3      -14.528749   1.000000
    4      -12.287737   1.000000
    5      -11.977016   1.000000
    6      -11.818835   1.000000
    7       -8.881177   1.000000
    8       -8.715031   1.000000
    9       -8.672110   1.000000
   10       -5.904779   1.000000
   11       -5.472914   1.000000
   12       -5.068515   1.000000
   13       -5.039981   1.000000
   14       -4.588435   1.000000
   15       -4.427814   1.000000
   16       -4.246727   1.000000
   17       -4.224601   1.000000
   18       -4.080892   1.000000
   19       -4.038845   1.000000
   20       -4.024850   1.000000
   21       -3.881471   1.000000
   22       -2.557535   1.000000
   23       -2.321029   1.000000
   24       -2.199433   1.000000
   25       -1.939944   1.000000
   26       -1.583109   1.000000
   27       -1.011309   1.000000
   28       -0.660407   1.000000
   29        0.247912   1.000000
   30        1.048886   0.494675
   31        1.066850   0.005328
   32        1.632157   0.000000
   33        1.780946   0.000000
   34        2.740480   0.000000
   35        2.815696   0.000000
   36        2.870239   0.000000
   37        2.890845   0.000000
   38        3.010663   0.000000
   39        3.128058   0.000000
   40        3.831352   0.000000
 
  0.2500000E+00  0.0000000E+00  0.0000000E+00  0.4166667E-01
    1      -14.226905   1.000000
    2      -14.046211   1.000000
    3      -13.990195   1.000000
    4      -11.725201   1.000000
    5      -11.413860   1.000000
    6      -11.254922   1.000000
    7       -9.573183   1.000000
    8       -9.404772   1.000000
    9       -9.360360   1.000000
   10       -6.288795   1.000000
   11       -5.914669   1.000000
   12       -5.685935   1.000000
   13       -5.463984   1.000000
   14       -5.047544   1.000000
   15       -5.010625   1.000000
   16       -4.843554   1.000000
   17       -4.803770   1.000000
   18       -4.667616   1.000000
   19       -3.988863   1.000000
   20       -3.601044   1.000000
   21       -3.437702   1.000000
   22       -2.959955   1.000000
   23       -2.643948   1.000000
   24       -2.373887   1.000000
   25       -1.886211   1.000000
   26       -1.435457   1.000000
   27       -1.067237   1.000000
   28       -0.826518   1.000000
   29       -0.197243   1.000000
   30        0.559826   1.000000
   31        1.312287   0.000000
   32        1.368984   0.000000
   33        1.635748   0.000000
   34        1.668842   0.000000
   35        2.264441   0.000000
   36        2.430414   0.000000
   37        3.140420   0.000000
   38        3.466865   0.000000
   39        3.528474   0.000000
   40        3.651705   0.000000
 
  0.3750000E+00  0.0000000E+00  0.0000000E+00  0.4166667E-01
    1      -13.347101   1.000000
    2      -13.167936   1.000000
    3      -13.113503   1.000000
    4      -10.818124   1.000000
    5      -10.798553   1.000000
    6      -10.645092   1.000000
    7      -10.596677   1.000000
    8      -10.485473   1.000000
    9      -10.324511   1.000000
   10       -7.971801   1.000000
   11       -7.640546   1.000000
   12       -7.459836   1.000000
   13       -4.931319   1.000000
   14       -4.847218   1.000000
   15       -4.769159   1.000000
   16       -4.736545   1.000000
   17       -4.492802   1.000000
   18       -4.259625   1.000000
   19       -3.399719   1.000000
   20       -3.077791   1.000000
   21       -2.810248   1.000000
   22       -2.802339   1.000000
   23       -2.564904   1.000000
   24       -2.193819   1.000000
   25       -2.143231   1.000000
   26       -1.703077   1.000000
   27       -1.613541   1.000000
   28       -1.044876   1.000000
   29       -0.939962   1.000000
   30       -0.298866   1.000000
   31        1.103508   0.000000
   32        1.198049   0.000000
   33        1.440081   0.000000
   34        1.657986   0.000000
   35        1.965967   0.000000
   36        2.075073   0.000000
   37        2.336862   0.000000
   38        2.422872   0.000000
   39        2.503574   0.000000
   40        2.739967   0.000000
 
  0.5000000E+00  0.0000000E+00  0.0000000E+00  0.2083333E-01
    1      -12.173121   1.000000
    2      -12.173121   1.000000
    3      -11.996387   1.000000
    4      -11.996387   1.000000
    5      -11.944414   1.000000
    6      -11.944414   1.000000
    7       -9.529890   1.000000
    8       -9.529890   1.000000
    9       -9.212087   1.000000
   10       -9.212087   1.000000
   11       -9.045911   1.000000
   12       -9.045911   1.000000
   13       -4.551192   1.000000
   14       -4.551192   1.000000
   15       -4.353748   1.000000
   16       -4.353748   1.000000
   17       -4.303517   1.000000
   18       -4.303517   1.000000
   19       -2.943644   1.000000
   20       -2.943644   1.000000
   21       -2.894719   1.000000
   22       -2.894719   1.000000
   23       -2.261428   1.000000
   24       -2.261428   1.000000
   25       -2.113082   1.000000
   26       -2.113082   1.000000
   27       -1.531970   1.000000
   28       -1.531970   1.000000
   29       -1.014626   1.000000
   30       -1.014626   1.000000
   31        1.187477   0.000000
   32        1.187477   0.000000
   33        1.607665   0.000000
   34        1.607665   0.000000
   35        1.962968   0.000000
   36        1.962979   0.000000
   37        2.006541   0.000000
   38        2.006562   0.000000
   39        2.084468   0.000000
   40        2.084482   0.000000
 
  0.0000000E+00  0.0000000E+00  0.1666667E+00  0.4166667E-01
    1      -14.791897   1.000000
    2      -14.612726   1.000000
    3      -14.558387   1.000000
    4      -12.557538   1.000000
    5      -12.302165   1.000000
    6      -12.206500   1.000000
    7       -8.923799   1.000000
    8       -8.787039   1.000000
    9       -8.758025   1.000000
   10       -6.379661   1.000000
   11       -6.145523   1.000000
   12       -6.099310   1.000000
   13       -4.615510   1.000000
   14       -4.475756   1.000000
   15       -3.921483   1.000000
   16       -3.732428   1.000000
   17       -3.362885   1.000000
   18       -3.351529   1.000000
   19       -3.346904   1.000000
   20       -3.204712   1.000000
   21       -3.171088   1.000000
   22       -1.879808   1.000000
   23       -1.693822   1.000000
   24       -1.653991   1.000000
   25       -1.378648   1.000000
   26       -0.999921   1.000000
   27       -0.900921   1.000000
   28       -0.625864   1.000000
   29       -0.478473   1.000000
   30        0.125943   1.000000
   31        1.648551   0.000000
   32        1.731594   0.000000
   33        1.832471   0.000000
   34        1.933913   0.000000
   35        2.211349   0.000000
   36        2.384925   0.000000
   37        2.431772   0.000000
   38        2.582238   0.000000
   39        2.606842   0.000000
   40        3.375676   0.000000
 
  0.1250000E+00  0.0000000E+00  0.1666667E+00  0.8333333E-01
    1      -14.611195   1.000000
    2      -14.432267   1.000000
    3      -14.378193   1.000000
    4      -12.373845   1.000000
    5      -12.120089   1.000000
    6      -12.026525   1.000000
    7       -8.987746   1.000000
    8       -8.854591   1.000000
    9       -8.831639   1.000000
   10       -6.342835   1.000000
   11       -6.048764   1.000000
   12       -6.043719   1.000000
   13       -4.761674   1.000000
   14       -4.746392   1.000000
   15       -4.446547   1.000000
   16       -4.339174   1.000000
   17       -4.141195   1.000000
   18       -3.915647   1.000000
   19       -3.233652   1.000000
   20       -3.066197   1.000000
   21       -2.957807   1.000000
   22       -2.678105   1.000000
   23       -2.599968   1.000000
   24       -2.594561   1.000000
   25       -1.368468   1.000000
   26       -1.059371   1.000000
   27       -0.907550   1.000000
   28       -0.608006   1.000000
   29       -0.467711   1.000000
   30        0.196680   1.000000
   31        1.771204   0.000000
   32        2.178120   0.000000
   33        2.386710   0.000000
   34        2.621604   0.000000
   35        2.750335   0.000000
   36        2.806396   0.000000
   37        2.973064   0.000000
   38        3.136880   0.000000
   39        3.178222   0.000000
   40        3.796266   0.000000
 
  0.2500000E+00  0.0000000E+00  0.1666667E+00  0.8333333E-01
    1      -14.075321   1.000000
    2      -13.897138   1.000000
    3      -13.843844   1.000000
    4      -11.834292   1.000000
    5      -11.589698   1.000000
    6      -11.508510   1.000000
    7       -9.430792   1.000000
    8       -9.303441   1.000000
    9       -9.289636   1.000000
   10       -6.698041   1.000000
   11       -6.352698   1.000000
   12       -6.183637   1.000000
   13       -5.565289   1.000000
   14       -5.473083   1.000000
   15       -5.344980   1.000000
   16       -4.990376   1.000000
   17       -4.659013   1.000000
   18       -4.606280   1.000000
   19       -3.294519   1.000000
   20       -3.269497   1.000000
   21       -3.006131   1.000000
   22       -2.905835   1.000000
   23       -2.689666   1.000000
   24       -2.616432   1.000000
   25       -1.609411   1.000000
   26       -1.448990   1.000000
   27       -1.281869   1.000000
   28       -0.899465   1.000000
   29       -0.545275   1.000000
   30        0.126882   1.000000
   31        1.766017   0.000000
   32        1.842082   0.000000
   33        2.101062   0.000000
   34        2.224124   0.000000
   35        2.581577   0.000000
   36        2.590928   0.000000
   37        2.688292   0.000000
   38        2.908834   0.000000
   39        3.117510   0.000000
   40        4.050146   0.000000
 
  0.3750000E+00  0.0000000E+00  0.1666667E+00  0.8333333E-01
    1      -13.207708   1.000000
    2      -13.030831   1.000000
    3      -12.978860   1.000000
    4      -11.137335   1.000000
    5      -11.000990   1.000000
    6      -10.980164   1.000000
    7      -10.287181   1.000000
    8      -10.110731   1.000000
    9      -10.036249   1.000000
   10       -8.069918   1.000000
   11       -7.767070   1.000000
   12       -7.620131   1.000000
   13       -5.483767   1.000000
   14       -5.366060   1.000000
   15       -5.275383   1.000000
   16       -4.704418   1.000000
   17       -4.453802   1.000000
   18       -4.448643   1.000000
   19       -3.418723   1.000000
   20       -3.215259   1.000000
   21       -2.974958   1.000000
   22       -2.944124   1.000000
   23       -2.784360   1.000000
   24       -2.576138   1.000000
   25       -2.223457   1.000000
   26       -1.765704   1.000000
   27       -1.480273   1.000000
   28       -1.094077   1.000000
   29       -0.786910   1.000000
   30       -0.218036   1.000000
   31        1.479010   0.000000
   32        1.689009   0.000000
   33        1.946962   0.000000
   34        2.046306   0.000000
   35        2.137857   0.000000
   36        2.409988   0.000000
   37        2.559091   0.000000
   38        2.568282   0.000000
   39        2.897373   0.000000
   40        3.000002   0.000000
 
  0.5000000E+00  0.0000000E+00  0.1666667E+00  0.4166667E-01
    1      -12.076358   1.000000
    2      -12.076358   1.000000
    3      -11.901625   1.000000
    4      -11.901625   1.000000
    5      -11.851796   1.000000
    6      -11.851796   1.000000
    7       -9.541610   1.000000
    8       -9.541610   1.000000
    9       -9.252469   1.000000
   10       -9.252469   1.000000
   11       -9.119009   1.000000
   12       -9.119009   1.000000
   13       -4.887964   1.000000
   14       -4.887964   1.000000
   15       -4.640992   1.000000
   16       -4.640992   1.000000
   17       -4.527137   1.000000
   18       -4.527137   1.000000
   19       -3.605013   1.000000
   20       -3.605013   1.000000
   21       -3.204607   1.000000
   22       -3.204607   1.000000
   23       -2.774962   1.000000
   24       -2.774962   1.000000
   25       -1.961791   1.000000
   26       -1.961791   1.000000
   27       -1.250414   1.000000
   28       -1.250414   1.000000
   29       -0.551874   1.000000
   30       -0.551874   1.000000
   31        1.237956   0.000000
   32        1.237956   0.000000
   33        1.666483   0.000000
   34        1.666483   0.000000
   35        1.854871   0.000000
   36        1.854871   0.000000
   37        2.992910   0.000000
   38        2.992911   0.000000
   39        3.339992   0.000000
   40        3.340680   0.000000
 
  0.0000000E+00  0.0000000E+00  0.3333333E+00  0.4166667E-01
    1      -14.337403   1.000000
    2      -14.168116   1.000000
    3      -14.124578   1.000000
    4      -12.936354   1.000000
    5      -12.781226   1.000000
    6      -12.779548   1.000000
    7       -9.131680   1.000000
    8       -8.846672   1.000000
    9       -8.663836   1.000000
   10       -7.687952   1.000000
   11       -7.283078   1.000000
   12       -7.021079   1.000000
   13       -4.523982   1.000000
   14       -3.797123   1.000000
   15       -3.013938   1.000000
   16       -3.006957   1.000000
   17       -2.866510   1.000000
   18       -2.843577   1.000000
   19       -2.708520   1.000000
   20       -2.363872   1.000000
   21       -2.147234   1.000000
   22       -2.098604   1.000000
   23       -1.968102   1.000000
   24       -1.948975   1.000000
   25       -1.944314   1.000000
   26       -1.599848   1.000000
   27       -0.874582   1.000000
   28        0.021362   1.000000
   29        0.118191   1.000000
   30        0.197105   1.000000
   31        1.738752   0.000000
   32        1.887871   0.000000
   33        1.969156   0.000000
   34        2.061748   0.000000
   35        2.222619   0.000000
   36        2.246080   0.000000
   37        2.787097   0.000000
   38        3.108789   0.000000
   39        3.264576   0.000000
   40        3.291304   0.000000
 
  0.1250000E+00  0.0000000E+00  0.3333333E+00  0.8333333E-01
    1      -14.160158   1.000000
    2      -13.990981   1.000000
    3      -13.947544   1.000000
    4      -12.762924   1.000000
    5      -12.608877   1.000000
    6      -12.608089   1.000000
    7       -9.084181   1.000000
    8       -8.808147   1.000000
    9       -8.639183   1.000000
   10       -7.608629   1.000000
   11       -7.209930   1.000000
   12       -6.953776   1.000000
   13       -4.514470   1.000000
   14       -4.404486   1.000000
   15       -4.199143   1.000000
   16       -4.113459   1.000000
   17       -3.620253   1.000000
   18       -3.347848   1.000000
   19       -3.122517   1.000000
   20       -3.092147   1.000000
   21       -2.816267   1.000000
   22       -2.587910   1.000000
   23       -1.912873   1.000000
   24       -1.889130   1.000000
   25       -1.440176   1.000000
   26       -1.303113   1.000000
   27       -0.774379   1.000000
   28       -0.381571   1.000000
   29       -0.305778   1.000000
   30       -0.251526   1.000000
   31        2.433896   0.000000
   32        2.764198   0.000000
   33        2.851908   0.000000
   34        2.998655   0.000000
   35        3.032496   0.000000
   36        3.274505   0.000000
   37        3.276293   0.000000
   38        3.304686   0.000000
   39        3.410314   0.000000
   40        3.417306   0.000000
 
  0.2500000E+00  0.0000000E+00  0.3333333E+00  0.8333333E-01
    1      -13.637872   1.000000
    2      -13.468945   1.000000
    3      -13.425725   1.000000
    4      -12.264823   1.000000
    5      -12.117476   1.000000
    6      -12.114976   1.000000
    7       -9.147240   1.000000
    8       -8.915906   1.000000
    9       -8.810190   1.000000
   10       -7.605722   1.000000
   11       -7.257167   1.000000
   12       -7.060769   1.000000
   13       -5.724383   1.000000
   14       -5.596817   1.000000
   15       -5.521239   1.000000
   16       -4.881580   1.000000
   17       -4.758455   1.000000
   18       -4.713744   1.000000
   19       -3.785793   1.000000
   20       -3.296790   1.000000
   21       -2.982068   1.000000
   22       -2.537682   1.000000
   23       -2.196936   1.000000
   24       -2.154083   1.000000
   25       -1.475357   1.000000
   26       -1.385058   1.000000
   27       -1.264013   1.000000
   28       -1.095866   1.000000
   29       -0.905155   1.000000
   30       -0.416174   1.000000
   31        2.120488   0.000000
   32        2.406945   0.000000
   33        2.545849   0.000000
   34        2.782511   0.000000
   35        2.969428   0.000000
   36        3.034087   0.000000
   37        3.467361   0.000000
   38        3.618487   0.000000
   39        3.676850   0.000000
   40        4.283228   0.000000
 
  0.3750000E+00  0.0000000E+00  0.3333333E+00  0.8333333E-01
    1      -12.811330   1.000000
    2      -12.642425   1.000000
    3      -12.599034   1.000000
    4      -11.619871   1.000000
    5      -11.473662   1.000000
    6      -11.473092   1.000000
    7       -9.730459   1.000000
    8       -9.539936   1.000000
    9       -9.489751   1.000000
   10       -8.435848   1.000000
   11       -8.191332   1.000000
   12       -8.107673   1.000000
   13       -5.947483   1.000000
   14       -5.757450   1.000000
   15       -5.614700   1.000000
   16       -5.099271   1.000000
   17       -4.846781   1.000000
   18       -4.770198   1.000000
   19       -3.983107   1.000000
   20       -3.784545   1.000000
   21       -3.684197   1.000000
   22       -3.179305   1.000000
   23       -2.980902   1.000000
   24       -2.872845   1.000000
   25       -2.331324   1.000000
   26       -1.735338   1.000000
   27       -1.474824   1.000000
   28       -0.973452   1.000000
   29       -0.758607   1.000000
   30       -0.088853   1.000000
   31        1.965185   0.000000
   32        2.252658   0.000000
   33        2.262384   0.000000
   34        2.645405   0.000000
   35        2.934525   0.000000
   36        3.079937   0.000000
   37        3.597793   0.000000
   38        3.737595   0.000000
   39        3.934696   0.000000
   40        4.022395   0.000000
 
  0.5000000E+00  0.0000000E+00  0.3333333E+00  0.4166667E-01
    1      -11.849887   1.000000
    2      -11.849887   1.000000
    3      -11.680680   1.000000
    4      -11.680680   1.000000
    5      -11.636798   1.000000
    6      -11.636798   1.000000
    7       -9.614024   1.000000
    8       -9.614024   1.000000
    9       -9.390989   1.000000
   10       -9.390989   1.000000
   11       -9.327481   1.000000
   12       -9.327481   1.000000
   13       -5.246892   1.000000
   14       -5.246892   1.000000
   15       -4.944903   1.000000
   16       -4.944903   1.000000
   17       -4.749184   1.000000
   18       -4.749184   1.000000
   19       -4.368797   1.000000
   20       -4.368797   1.000000
   21       -4.002541   1.000000
   22       -4.002541   1.000000
   23       -3.666920   1.000000
   24       -3.666920   1.000000
   25       -1.997130   1.000000
   26       -1.997130   1.000000
   27       -1.161235   1.000000
   28       -1.161235   1.000000
   29       -0.321314   1.000000
   30       -0.321314   1.000000
   31        2.327332   0.000000
   32        2.327332   0.000000
   33        2.554418   0.000000
   34        2.554418   0.000000
   35        3.001927   0.000000
   36        3.001927   0.000000
   37        3.309994   0.000000
   38        3.309994   0.000000
   39        3.579660   0.000000
   40        3.579661   0.000000
 
  0.0000000E+00  0.0000000E+00  0.5000000E+00  0.2083333E-01
    1      -13.652403   1.000000
    2      -13.652403   1.000000
    3      -13.549939   1.000000
    4      -13.549939   1.000000
    5      -13.429397   1.000000
    6      -13.429397   1.000000
    7       -8.689431   1.000000
    8       -8.689431   1.000000
    9       -8.297601   1.000000
   10       -8.297601   1.000000
   11       -8.021162   1.000000
   12       -8.021162   1.000000
   13       -3.773949   1.000000
   14       -3.773949   1.000000
   15       -2.907756   1.000000
   16       -2.907756   1.000000
   17       -2.530793   1.000000
   18       -2.530793   1.000000
   19       -2.456087   1.000000
   20       -2.456087   1.000000
   21       -2.322861   1.000000
   22       -2.322861   1.000000
   23       -2.067734   1.000000
   24       -2.067734   1.000000
   25       -0.708792   1.000000
   26       -0.708792   1.000000
   27       -0.579155   1.000000
   28       -0.579155   1.000000
   29       -0.530214   1.000000
   30       -0.530214   1.000000
   31        1.918325   0.000000
   32        1.918325   0.000000
   33        2.235986   0.000000
   34        2.235986   0.000000
   35        2.406432   0.000000
   36        2.406432   0.000000
   37        3.330474   0.000000
   38        3.330530   0.000000
   39        3.551269   0.000000
   40        3.558184   0.000000
 
  0.1250000E+00  0.0000000E+00  0.5000000E+00  0.4166667E-01
    1      -13.479935   1.000000
    2      -13.479935   1.000000
    3      -13.376528   1.000000
    4      -13.376528   1.000000
    5      -13.257099   1.000000
    6      -13.257099   1.000000
    7       -8.602419   1.000000
    8       -8.602419   1.000000
    9       -8.219930   1.000000
   10       -8.219930   1.000000
   11       -7.956512   1.000000
   12       -7.956512   1.000000
   13       -3.849110   1.000000
   14       -3.849110   1.000000
   15       -3.790308   1.000000
   16       -3.790308   1.000000
   17       -3.694433   1.000000
   18       -3.694433   1.000000
   19       -3.510690   1.000000
   20       -3.510690   1.000000
   21       -2.776436   1.000000
   22       -2.776436   1.000000
   23       -2.033217   1.000000
   24       -2.033217   1.000000
   25       -0.608075   1.000000
   26       -0.608075   1.000000
   27       -0.438762   1.000000
   28       -0.438762   1.000000
   29       -0.411375   1.000000
   30       -0.411375   1.000000
   31        2.631602   0.000000
   32        2.631602   0.000000
   33        2.825687   0.000000
   34        2.825687   0.000000
   35        2.904861   0.000000
   36        2.904861   0.000000
   37        3.152571   0.000000
   38        3.152571   0.000000
   39        3.790033   0.000000
   40        3.790034   0.000000
 
  0.2500000E+00  0.0000000E+00  0.5000000E+00  0.4166667E-01
    1      -12.978632   1.000000
    2      -12.978632   1.000000
    3      -12.871109   1.000000
    4      -12.871109   1.000000
    5      -12.756340   1.000000
    6      -12.756340   1.000000
    7       -8.521513   1.000000
    8       -8.521513   1.000000
    9       -8.197870   1.000000
   10       -8.197870   1.000000
   11       -8.011781   1.000000
   12       -8.011781   1.000000
   13       -5.390658   1.000000
   14       -5.390658   1.000000
   15       -5.260566   1.000000
   16       -5.260566   1.000000
   17       -5.155235   1.000000
   18       -5.155235   1.000000
   19       -3.351713   1.000000
   20       -3.351713   1.000000
   21       -2.745219   1.000000
   22       -2.745219   1.000000
   23       -2.460542   1.000000
   24       -2.460542   1.000000
   25       -1.286099   1.000000
   26       -1.286099   1.000000
   27       -1.181929   1.000000
   28       -1.181929   1.000000
   29       -0.765274   1.000000
   30       -0.765274   1.000000
   31        2.865812   0.000000
   32        2.865812   0.000000
   33        3.289300   0.000000
   34        3.289300   0.000000
   35        3.410237   0.000000
   36        3.410237   0.000000
   37        3.861490   0.000000
   38        3.861730   0.000000
   39        3.973380   0.000000
   40        3.975402   0.000000
 
  0.3750000E+00  0.0000000E+00  0.5000000E+00  0.4166667E-01
    1      -12.233739   1.000000
    2      -12.233739   1.000000
    3      -12.111179   1.000000
    4      -12.111179   1.000000
    5      -12.013557   1.000000
    6      -12.013557   1.000000
    7       -9.061988   1.000000
    8       -9.061988   1.000000
    9       -8.866736   1.000000
   10       -8.866736   1.000000
   11       -8.785191   1.000000
   12       -8.785191   1.000000
   13       -5.779891   1.000000
   14       -5.779891   1.000000
   15       -5.519470   1.000000
   16       -5.519470   1.000000
   17       -5.335656   1.000000
   18       -5.335656   1.000000
   19       -3.757655   1.000000
   20       -3.757655   1.000000
   21       -3.533609   1.000000
   22       -3.533609   1.000000
   23       -3.416615   1.000000
   24       -3.416615   1.000000
   25       -2.037126   1.000000
   26       -2.037126   1.000000
   27       -1.300574   1.000000
   28       -1.300574   1.000000
   29       -0.477250   1.000000
   30       -0.477250   1.000000
   31        2.675250   0.000000
   32        2.675250   0.000000
   33        3.059275   0.000000
   34        3.059275   0.000000
   35        3.175300   0.000000
   36        3.175300   0.000000
   37        4.162572   0.000000
   38        4.163090   0.000000
   39        4.214290   0.000000
   40        4.230429   0.000000
 
  0.5000000E+00  0.0000000E+00  0.5000000E+00  0.2083333E-01
    1      -11.711938   1.000000
    2      -11.711938   1.000000
    3      -11.546869   1.000000
    4      -11.546869   1.000000
    5      -11.507500   1.000000
    6      -11.507500   1.000000
    7       -9.687542   1.000000
    8       -9.687542   1.000000
    9       -9.499301   1.000000
   10       -9.499301   1.000000
   11       -9.469514   1.000000
   12       -9.469514   1.000000
   13       -5.109860   1.000000
   14       -5.109860   1.000000
   15       -5.023433   1.000000
   16       -5.023433   1.000000
   17       -4.699442   1.000000
   18       -4.699442   1.000000
   19       -4.681960   1.000000
   20       -4.681960   1.000000
   21       -4.477535   1.000000
   22       -4.477535   1.000000
   23       -4.363629   1.000000
   24       -4.363629   1.000000
   25       -2.007198   1.000000
   26       -2.007198   1.000000
   27       -1.117023   1.000000
   28       -1.117023   1.000000
   29       -0.242957   1.000000
   30       -0.242957   1.000000
   31        2.143072   0.000000
   32        2.143072   0.000000
   33        2.711008   0.000000
   34        2.711008   0.000000
   35        2.990974   0.000000
   36        2.990974   0.000000
   37        4.684968   0.000000
   38        4.690411   0.000000
   39        4.837162   0.000000
   40        4.850037   0.000000
