 vasp.5.4.4.18Apr17-6-g9f103f2a35 (build Jun 20 2017 18:00:50) complex          
  
 executed on             LinuxIFC date 2018.03.22  15:18:11
 running on   32 total cores
 distrk:  each k-point on   32 cores,    1 groups
 distr:  one band on NCORES_PER_BAND=   8 cores,    4 groups


--------------------------------------------------------------------------------------------------------


 INCAR:
 POTCAR:    PAW_PBE P 06Sep2000                   
 POTCAR:    PAW_PBE P 06Sep2000                   
   VRHFIN =P : s2p3                                                             
   LEXCH  = PE                                                                  
   EATOM  =   176.0430 eV,   12.9388 Ry                                         
                                                                                
   TITEL  = PAW_PBE P 06Sep2000                                                 
   LULTRA =        F    use ultrasoft PP ?                                      
   IUNSCR =        1    unscreen: 0-lin 1-nonlin 2-no                           
   RPACOR =    1.500    partial core radius                                     
   POMASS =   30.974; ZVAL   =    5.000    mass and valenz                      
   RCORE  =    1.900    outmost cutoff radius                                   
   RWIGS  =    2.330; RWIGS  =    1.233    wigner-seitz radius (au A)           
   ENMAX  =  255.040; ENMIN  =  191.280 eV                                      
   ICORE  =        2    local potential                                         
   LCOR   =        T    correct aug charges                                     
   LPAW   =        T    paw PP                                                  
   EAUG   =  342.924                                                            
   DEXC   =    0.000                                                            
   RMAX   =    1.935    core radius for proj-oper                               
   RAUG   =    1.300    factor for augmentation sphere                          
   RDEP   =    1.931    radius for radial grids                                 
   RDEPT  =    1.794    core radius for aug-charge                              
                                                                                
   Atomic configuration                                                         
    6 entries                                                                   
     n  l   j            E        occ.                                          
     1  0  0.50     -2084.0982   2.0000                                         
     2  0  0.50      -173.9859   2.0000                                         
     2  1  1.50      -124.4865   6.0000                                         
     3  0  0.50       -13.9692   2.0000                                         
     3  1  0.50        -5.5067   3.0000                                         
     3  2  1.50        -5.4423   0.0000                                         
   Description                                                                  
     l       E           TYP  RCUT    TYP  RCUT                                 
     0    -13.9691527     23  1.900                                             
     0    -11.7794650     23  1.900                                             
     1     -5.5066937     23  1.900                                             
     1     -0.2556953     23  1.900                                             
     2     -5.4423304     23  1.900                                             
  local pseudopotential read in
  partial core-charges read in
  partial kinetic energy density read in
  atomic valenz-charges read in
  non local Contribution for L=           0  read in
    real space projection operators read in
  non local Contribution for L=           0  read in
    real space projection operators read in
  non local Contribution for L=           1  read in
    real space projection operators read in
  non local Contribution for L=           1  read in
    real space projection operators read in
    PAW grid and wavefunctions read in
 
   number of l-projection  operators is LMAX  =           4
   number of lm-projection operators is LMMAX =           8
 
  PAW_PBE P 06Sep2000                   :
 energy of atom  1       EATOM= -176.0430
 kinetic energy error for atom=    0.0019 (will be added to EATOM!!)
 
 
 POSCAR: P12                                     
  positions in direct lattice
  No initial velocities read in
 exchange correlation table for  LEXCH =        8
   RHO(1)=    0.500       N(1)  =     2000
   RHO(2)=  100.500       N(2)  =     4000
 


--------------------------------------------------------------------------------------------------------


 ion  position               nearest neighbor table
   1  0.000  0.307  0.919-   2 2.23   2 2.23   3 2.26
   2  0.500  0.307  0.581-   1 2.23   1 2.23   4 2.26
   3  0.000  0.372  0.081-   4 2.23   4 2.23   1 2.26
   4  0.500  0.372  0.419-   3 2.23   3 2.23   2 2.26
   5  0.000  0.467  0.919-   6 2.23   6 2.23   7 2.26
   6  0.500  0.467  0.581-   5 2.23   5 2.23   8 2.26
   7  0.000  0.533  0.081-   8 2.23   8 2.23   5 2.26
   8  0.500  0.533  0.419-   7 2.23   7 2.23   6 2.26
   9  0.000  0.628  0.919-  10 2.23  10 2.23  11 2.26
  10  0.500  0.628  0.581-   9 2.23   9 2.23  12 2.26
  11  0.000  0.693  0.081-  12 2.23  12 2.23   9 2.26
  12  0.500  0.693  0.419-  11 2.23  11 2.23  10 2.26
 
  LATTYP: Found a simple orthorhombic cell.
 ALAT       =     3.3428860000
 B/A-ratio  =     1.3086988309
 C/A-ratio  =     9.7527732026
  
  Lattice vectors:
  
 A1 = (  -3.3428860000,   0.0000000000,   0.0000000000)
 A2 = (   0.0000000000,   0.0000000000,  -4.3748310000)
 A3 = (   0.0000000000, -32.6024090000,   0.0000000000)


Analysis of symmetry for initial positions (statically):
=====================================================================
 Subroutine PRICEL returns:
 Original cell was already a primitive cell.
 

 Routine SETGRP: Setting up the symmetry group for a 
 simple orthorhombic supercell.


 Subroutine GETGRP returns: Found  8 space group operations
 (whereof  4 operations were pure point group operations)
 out of a pool of  8 trial point group operations.


The static configuration has the point symmetry C_2h.
 The point group associated with its full space group is D_2h.


Analysis of symmetry for dynamics (positions and initial velocities):
=====================================================================
 Subroutine PRICEL returns:
 Original cell was already a primitive cell.
 

 Routine SETGRP: Setting up the symmetry group for a 
 simple orthorhombic supercell.


 Subroutine GETGRP returns: Found  8 space group operations
 (whereof  4 operations were pure point group operations)
 out of a pool of  8 trial point group operations.


The dynamic configuration has the point symmetry C_2h.
 The point group associated with its full space group is D_2h.


 Subroutine INISYM returns: Found  8 space group operations
 (whereof  4 operations are pure point group operations),
 and found     1 'primitive' translations

 
 
 KPOINTS: Automatic mesh                          

Automatic generation of k-mesh.
Space group operators:
 irot       det(A)        alpha          n_x          n_y          n_z        tau_x        tau_y        tau_z
    1     1.000000     0.000001     1.000000     0.000000     0.000000     0.000000     0.000000     0.000000
    2    -1.000000     0.000001     1.000000     0.000000     0.000000     0.000000     0.000000     0.000000
    3     1.000000   179.999999     1.000000     0.000000     0.000000     0.000000     0.000000     0.000000
    4    -1.000000   179.999999     1.000000     0.000000     0.000000     0.000000     0.000000     0.000000
    5     1.000000   179.999999     0.000000     1.000000     0.000000    -0.500000     0.000000    -0.500000
    6    -1.000000   179.999999     0.000000     1.000000     0.000000    -0.500000     0.000000    -0.500000
    7     1.000000   179.999999     0.000000     0.000000     1.000000    -0.500000     0.000000    -0.500000
    8    -1.000000   179.999999     0.000000     0.000000     1.000000    -0.500000     0.000000    -0.500000
 
 Subroutine IBZKPT returns following result:
 ===========================================
 
 Found     20 irreducible k-points:
 
 Following reciprocal coordinates:
            Coordinates               Weight
  0.000000  0.000000  0.000000      1.000000
  0.125000  0.000000  0.000000      2.000000
  0.250000  0.000000  0.000000      2.000000
  0.375000  0.000000  0.000000      2.000000
  0.500000  0.000000  0.000000      1.000000
  0.000000  0.000000  0.166667      2.000000
  0.125000  0.000000  0.166667      4.000000
  0.250000  0.000000  0.166667      4.000000
  0.375000  0.000000  0.166667      4.000000
  0.500000  0.000000  0.166667      2.000000
  0.000000  0.000000  0.333333      2.000000
  0.125000  0.000000  0.333333      4.000000
  0.250000  0.000000  0.333333      4.000000
  0.375000  0.000000  0.333333      4.000000
  0.500000  0.000000  0.333333      2.000000
  0.000000  0.000000  0.500000      1.000000
  0.125000  0.000000  0.500000      2.000000
  0.250000  0.000000  0.500000      2.000000
  0.375000  0.000000  0.500000      2.000000
  0.500000  0.000000  0.500000      1.000000
 
 Following cartesian coordinates:
            Coordinates               Weight
  0.000000  0.000000  0.000000      1.000000
  0.037393  0.000000  0.000000      2.000000
  0.074786  0.000000  0.000000      2.000000
  0.112179  0.000000  0.000000      2.000000
  0.149571  0.000000  0.000000      1.000000
  0.000000  0.000000  0.038097      2.000000
  0.037393  0.000000  0.038097      4.000000
  0.074786  0.000000  0.038097      4.000000
  0.112179  0.000000  0.038097      4.000000
  0.149571  0.000000  0.038097      2.000000
  0.000000  0.000000  0.076193      2.000000
  0.037393  0.000000  0.076193      4.000000
  0.074786  0.000000  0.076193      4.000000
  0.112179  0.000000  0.076193      4.000000
  0.149571  0.000000  0.076193      2.000000
  0.000000  0.000000  0.114290      1.000000
  0.037393  0.000000  0.114290      2.000000
  0.074786  0.000000  0.114290      2.000000
  0.112179  0.000000  0.114290      2.000000
  0.149571  0.000000  0.114290      1.000000
 


--------------------------------------------------------------------------------------------------------




 Dimension of arrays:
   k-points           NKPTS =     20   k-points in BZ     NKDIM =     20   number of bands    NBANDS=     40
   number of dos      NEDOS =   2000   number of ions     NIONS =     12
   non local maximal  LDIM  =      4   non local SUM 2l+1 LMDIM =      8
   total plane-waves  NPLWV =  77760
   max r-space proj   IRMAX =      1   max aug-charges    IRDMAX=   5162
   dimension x,y,z NGX =    18 NGY =  180 NGZ =   24
   dimension x,y,z NGXF=    36 NGYF=  360 NGZF=   48
   support grid    NGXF=    36 NGYF=  360 NGZF=   48
   ions per type =              12
   NGX,Y,Z   is equivalent  to a cutoff of   8.95,  9.18,  9.12 a.u.
   NGXF,Y,Z  is equivalent  to a cutoff of  17.90, 18.36, 18.24 a.u.

 SYSTEM =  Generic Input                           
 POSCAR =  P12                                     

 Startparameter for this run:
   NWRITE =      2    write-flag & timer
   PREC   = normal    normal or accurate (medium, high low for compatibility)
   ISTART =      0    job   : 0-new  1-cont  2-samecut
   ICHARG =      2    charge: 1-file 2-atom 10-const
   ISPIN  =      1    spin polarized calculation?
   LNONCOLLINEAR =      F non collinear calculations
   LSORBIT =      F    spin-orbit coupling
   INIWAV =      1    electr: 0-lowe 1-rand  2-diag
   LASPH  =      T    aspherical Exc in radial PAW
   METAGGA=      F    non-selfconsistent MetaGGA calc.

 Electronic Relaxation 1
   ENCUT  =  450.0 eV  33.07 Ry    5.75 a.u.   5.78 56.39  7.57*2*pi/ulx,y,z
   ENINI  =  450.0     initial cutoff
   ENAUG  =  342.9 eV  augmentation charge cutoff
   NELM   =    200;   NELMIN=  2; NELMDL=  0     # of ELM steps 
   EDIFF  = 0.1E-04   stopping-criterion for ELM
   LREAL  =      F    real-space projection
   NLSPLINE    = F    spline interpolate recip. space projectors
   LCOMPAT=      F    compatible to vasp.4.4
   GGA_COMPAT  = T    GGA compatible to vasp.4.4-vasp.4.6
   LMAXPAW     = -100 max onsite density
   LMAXMIX     =    2 max onsite mixed and CHGCAR
   VOSKOWN=      0    Vosko Wilk Nusair interpolation
   ROPT   =    0.00000
 Ionic relaxation
   EDIFFG = -.2E-01   stopping-criterion for IOM
   NSW    =      0    number of steps for IOM
   NBLOCK =      1;   KBLOCK =      1    inner block; outer block 
   IBRION =     -1    ionic relax: 0-MD 1-quasi-New 2-CG
   NFREE  =      1    steps in history (QN), initial steepest desc. (CG)
   ISIF   =      3    stress and relaxation
   IWAVPR =     11    prediction:  0-non 1-charg 2-wave 3-comb
   ISYM   =      2    0-nonsym 1-usesym 2-fastsym
   LCORR  =      T    Harris-Foulkes like correction to forces

   POTIM  = 0.5000    time-step for ionic-motion
   TEIN   =    0.0    initial temperature
   TEBEG  =    0.0;   TEEND  =   0.0 temperature during run
   SMASS  =  -3.00    Nose mass-parameter (am)
   estimated Nose-frequenzy (Omega)   =  0.10E-29 period in steps =****** mass=  -0.255E-27a.u.
   SCALEE = 1.0000    scale energy and forces
   NPACO  =    256;   APACO  = 16.0  distance and # of slots for P.C.
   PSTRESS=    0.0 pullay stress

  Mass of Ions in am
   POMASS =  30.97
  Ionic Valenz
   ZVAL   =   5.00
  Atomic Wigner-Seitz radii
   RWIGS  =  -1.00
  virtual crystal weights 
   VCA    =   1.00
   NELECT =      60.0000    total number of electrons
   NUPDOWN=      -1.0000    fix difference up-down

 DOS related values:
   EMIN   =  10.00;   EMAX   =-10.00  energy-range for DOS
   EFERMI =   0.00
   ISMEAR =     0;   SIGMA  =   0.01  broadening in eV -4-tet -1-fermi 0-gaus

 Electronic relaxation 2 (details)
   IALGO  =     38    algorithm
   LDIAG  =      T    sub-space diagonalisation (order eigenvalues)
   LSUBROT=      F    optimize rotation matrix (better conditioning)
   TURBO    =      0    0=normal 1=particle mesh
   IRESTART =      0    0=no restart 2=restart with 2 vectors
   NREBOOT  =      0    no. of reboots
   NMIN     =      0    reboot dimension
   EREF     =   0.00    reference energy to select bands
   IMIX   =      4    mixing-type and parameters
     AMIX     =   0.40;   BMIX     =  1.00
     AMIX_MAG =   1.60;   BMIX_MAG =  1.00
     AMIN     =   0.10
     WC   =   100.;   INIMIX=   1;  MIXPRE=   1;  MAXMIX= -45

 Intra band minimization:
   WEIMIN = 0.0000     energy-eigenvalue tresh-hold
   EBREAK =  0.63E-07  absolut break condition
   DEPER  =   0.30     relativ break condition  

   TIME   =   0.40     timestep for ELM

  volume/ion in A,a.u.               =      39.73       268.13
  Fermi-wavevector in a.u.,A,eV,Ry     =   0.820379  1.550291  9.157011  0.673021
  Thomas-Fermi vector in A             =   1.931350
 
 Write flags
   LWAVE        =      T    write WAVECAR
   LDOWNSAMPLE  =      F    k-point downsampling of WAVECAR
   LCHARG       =      T    write CHGCAR
   LVTOT        =      F    write LOCPOT, total local potential
   LVHAR        =      T    write LOCPOT, Hartree potential only
   LELF         =      F    write electronic localiz. function (ELF)
   LORBIT       =     11    0 simple, 1 ext, 2 COOP (PROOUT), +10 PAW based schemes


 Dipole corrections
   LMONO  =      F    monopole corrections only (constant potential shift)
   LDIPOL =      F    correct potential (dipole corrections)
   IDIPOL =      0    1-x, 2-y, 3-z, 4-all directions 
   EPSILON=  1.0000000 bulk dielectric constant

 Core level calculations are selected ICORELEVEL =  1
 Exchange correlation treatment:
   GGA     =    PE    GGA type
   LEXCH   =     8    internal setting for exchange type
   VOSKOWN=      0    Vosko Wilk Nusair interpolation
   LHFCALC =     F    Hartree Fock is set to
   LHFONE  =     F    Hartree Fock one center treatment
   AEXX    =    0.0000 exact exchange contribution

 Linear response parameters
   LEPSILON=     F    determine dielectric tensor
   LRPA    =     F    only Hartree local field effects (RPA)
   LNABLA  =     F    use nabla operator in PAW spheres
   LVEL    =     F    velocity operator in full k-point grid
   LINTERFAST=   F  fast interpolation
   KINTER  =     0    interpolate to denser k-point grid
   CSHIFT  =0.1000    complex shift for real part using Kramers Kronig
   OMEGAMAX=  -1.0    maximum frequency
   DEG_THRESHOLD= 0.2000000E-02 threshold for treating states as degnerate
   RTIME   =   -0.100 relaxation time in fs
  (WPLASMAI=    0.000 imaginary part of plasma frequency in eV, 0.658/RTIME)
   DFIELD  = 0.0000000 0.0000000 0.0000000 field for delta impulse in time
 
 Orbital magnetization related:
   ORBITALMAG=     F  switch on orbital magnetization
   LCHIMAG   =     F  perturbation theory with respect to B field
   DQ        =  0.001000  dq finite difference perturbation B field
   LLRAUG    =     F  two centre corrections for induced B field



--------------------------------------------------------------------------------------------------------


 Static calculation
 charge density and potential will be updated during run
 non-spin polarized calculation
 Variant of blocked Davidson
 Davidson routine will perform the subspace rotation
 perform sub-space diagonalisation
    after iterative eigenvector-optimisation
 modified Broyden-mixing scheme, WC =      100.0
 initial mixing is a Kerker type mixing with AMIX =  0.4000 and BMIX =      1.0000
 Hartree-type preconditioning will be used
 using additional bands           10
 reciprocal scheme for non local part
 use partial core corrections
 calculate Harris-corrections to forces 
   (improved forces if not selfconsistent)
 use gradient corrections 
 use of overlap-Matrix (Vanderbilt PP)
 Gauss-broadening in eV      SIGMA  =   0.01


--------------------------------------------------------------------------------------------------------


  energy-cutoff  :      450.00
  volume of cell :      476.80
      direct lattice vectors                 reciprocal lattice vectors
     3.342886000  0.000000000  0.000000000     0.299142717  0.000000000  0.000000000
     0.000000000 32.602409000  0.000000000     0.000000000  0.030672580  0.000000000
     0.000000000  0.000000000  4.374831000     0.000000000  0.000000000  0.228580258

  length of vectors
     3.342886000 32.602409000  4.374831000     0.299142717  0.030672580  0.228580258


 
 k-points in units of 2pi/SCALE and weight: Automatic mesh                          
   0.00000000  0.00000000  0.00000000       0.021
   0.03739284  0.00000000  0.00000000       0.042
   0.07478568  0.00000000  0.00000000       0.042
   0.11217852  0.00000000  0.00000000       0.042
   0.14957136  0.00000000  0.00000000       0.021
   0.00000000  0.00000000  0.03809671       0.042
   0.03739284  0.00000000  0.03809671       0.083
   0.07478568  0.00000000  0.03809671       0.083
   0.11217852  0.00000000  0.03809671       0.083
   0.14957136  0.00000000  0.03809671       0.042
   0.00000000  0.00000000  0.07619342       0.042
   0.03739284  0.00000000  0.07619342       0.083
   0.07478568  0.00000000  0.07619342       0.083
   0.11217852  0.00000000  0.07619342       0.083
   0.14957136  0.00000000  0.07619342       0.042
   0.00000000  0.00000000  0.11429013       0.021
   0.03739284  0.00000000  0.11429013       0.042
   0.07478568  0.00000000  0.11429013       0.042
   0.11217852  0.00000000  0.11429013       0.042
   0.14957136  0.00000000  0.11429013       0.021
 
 k-points in reciprocal lattice and weights: Automatic mesh                          
   0.00000000  0.00000000  0.00000000       0.021
   0.12500000  0.00000000  0.00000000       0.042
   0.25000000  0.00000000  0.00000000       0.042
   0.37500000  0.00000000  0.00000000       0.042
   0.50000000  0.00000000  0.00000000       0.021
   0.00000000  0.00000000  0.16666667       0.042
   0.12500000  0.00000000  0.16666667       0.083
   0.25000000  0.00000000  0.16666667       0.083
   0.37500000  0.00000000  0.16666667       0.083
   0.50000000  0.00000000  0.16666667       0.042
   0.00000000  0.00000000  0.33333333       0.042
   0.12500000  0.00000000  0.33333333       0.083
   0.25000000  0.00000000  0.33333333       0.083
   0.37500000  0.00000000  0.33333333       0.083
   0.50000000  0.00000000  0.33333333       0.042
   0.00000000  0.00000000  0.50000000       0.021
   0.12500000  0.00000000  0.50000000       0.042
   0.25000000  0.00000000  0.50000000       0.042
   0.37500000  0.00000000  0.50000000       0.042
   0.50000000  0.00000000  0.50000000       0.021
 
 position of ions in fractional coordinates (direct lattice) 
   0.00000000  0.30672600  0.91892400
   0.50000000  0.30672600  0.58107600
   0.00000000  0.37246700  0.08107600
   0.50000000  0.37246700  0.41892400
   0.00000000  0.46712900  0.91892400
   0.50000000  0.46712900  0.58107600
   0.00000000  0.53287100  0.08107600
   0.50000000  0.53287100  0.41892400
   0.00000000  0.62753300  0.91892400
   0.50000000  0.62753300  0.58107600
   0.00000000  0.69327400  0.08107600
   0.50000000  0.69327400  0.41892400
 
 position of ions in cartesian coordinates  (Angst):
   0.00000000 10.00000650  4.02013720
   1.67144300 10.00000650  2.54210930
   0.00000000 12.14332147  0.35469380
   1.67144300 12.14332147  1.83272170
   0.00000000 15.22953071  4.02013720
   1.67144300 15.22953071  2.54210930
   0.00000000 17.37287829  0.35469380
   1.67144300 17.37287829  1.83272170
   0.00000000 20.45908753  4.02013720
   1.67144300 20.45908753  2.54210930
   0.00000000 22.60240250  0.35469380
   1.67144300 22.60240250  1.83272170
 


--------------------------------------------------------------------------------------------------------


 k-point  1 :   0.0000 0.0000 0.0000  plane waves:   10373
 k-point  2 :   0.1250 0.0000 0.0000  plane waves:   10387
 k-point  3 :   0.2500 0.0000 0.0000  plane waves:   10360
 k-point  4 :   0.3750 0.0000 0.0000  plane waves:   10334
 k-point  5 :   0.5000 0.0000 0.0000  plane waves:   10356
 k-point  6 :   0.0000 0.0000 0.1667  plane waves:   10367
 k-point  7 :   0.1250 0.0000 0.1667  plane waves:   10358
 k-point  8 :   0.2500 0.0000 0.1667  plane waves:   10326
 k-point  9 :   0.3750 0.0000 0.1667  plane waves:   10344
 k-point 10 :   0.5000 0.0000 0.1667  plane waves:   10354
 k-point 11 :   0.0000 0.0000 0.3333  plane waves:   10325
 k-point 12 :   0.1250 0.0000 0.3333  plane waves:   10297
 k-point 13 :   0.2500 0.0000 0.3333  plane waves:   10302
 k-point 14 :   0.3750 0.0000 0.3333  plane waves:   10362
 k-point 15 :   0.5000 0.0000 0.3333  plane waves:   10356
 k-point 16 :   0.0000 0.0000 0.5000  plane waves:   10272
 k-point 17 :   0.1250 0.0000 0.5000  plane waves:   10272
 k-point 18 :   0.2500 0.0000 0.5000  plane waves:   10282
 k-point 19 :   0.3750 0.0000 0.5000  plane waves:   10358
 k-point 20 :   0.5000 0.0000 0.5000  plane waves:   10364

 maximum and minimum number of plane-waves per node :      1327     1269

 maximum number of plane-waves:     10387
 maximum index in each direction: 
   IXMAX=    5   IYMAX=   56   IZMAX=    7
   IXMIN=   -6   IYMIN=  -56   IZMIN=   -8


 parallel 3D FFT for wavefunctions:
    minimum data exchange during FFTs selected (reduces bandwidth)
 parallel 3D FFT for charge:
    minimum data exchange during FFTs selected (reduces bandwidth)


 total amount of memory used by VASP MPI-rank0    39848. kBytes
=======================================================================

   base      :      30000. kBytes
   nonl-proj :       1919. kBytes
   fftplans  :       1467. kBytes
   grid      :       2232. kBytes
   one-center:          6. kBytes
   wavefun   :       4224. kBytes
 
     INWAV:  cpu time    0.0000: real time    0.0000
 Broyden mixing: mesh for mixing (old mesh)
   NGX = 11   NGY =113   NGZ = 15
  (NGX  = 36   NGY  =360   NGZ  = 48)
  gives a total of  18645 points

 initial charge density was supplied:
 charge density of overlapping atoms calculated
 number of electron      60.0000000 magnetization 
 keeping initial charge density in first step


--------------------------------------------------------------------------------------------------------


 Maximum index for augmentation-charges          651 (set IRDMAX)


--------------------------------------------------------------------------------------------------------


 First call to EWALD:  gamma=   0.227
 Maximum number of real-space cells 6x 1x 5
 Maximum number of reciprocal cells 1x10x 2

    FEWALD:  cpu time    0.0017: real time    0.0017


--------------------------------------- Iteration      1(   1)  ---------------------------------------


    POTLOK:  cpu time    0.0359: real time    0.0374
    SETDIJ:  cpu time    0.0647: real time    0.0647
     EDDAV:  cpu time    0.8595: real time    0.8612
       DOS:  cpu time    0.0008: real time    0.0008
    --------------------------------------------
      LOOP:  cpu time    0.9609: real time    0.9641

 eigenvalue-minimisations  :  1600
 total energy-change (2. order) : 0.3547790E+03  (-0.2039691E+04)
 number of electron      60.0000000 magnetization 
 augmentation part       60.0000000 magnetization 

 Free energy of the ion-electron system (eV)
  ---------------------------------------------------
  alpha Z        PSCENC =        30.28014394
  Ewald energy   TEWEN  =     14975.37070712
  -Hartree energ DENC   =    -16930.57457869
  -exchange      EXHF   =         0.00000000
  -V(xc)+E(xc)   XCENC  =        40.42313226
  PAW double counting   =      1677.12035881    -1579.18296132
  entropy T*S    EENTRO =        -0.00039002
  eigenvalues    EBANDS =        28.84882786
  atomic energy  EATOM  =      2112.49373795
  Solvation  Ediel_sol  =         0.00000000
  ---------------------------------------------------
  free energy    TOTEN  =       354.77897789 eV

  energy without entropy =      354.77936791  energy(sigma->0) =      354.77917290


--------------------------------------------------------------------------------------------------------




--------------------------------------- Iteration      1(   2)  ---------------------------------------


     EDDAV:  cpu time    1.1140: real time    1.1165
       DOS:  cpu time    0.0007: real time    0.0007
    --------------------------------------------
      LOOP:  cpu time    1.1148: real time    1.1173

 eigenvalue-minimisations  :  2288
 total energy-change (2. order) :-0.3791164E+03  (-0.3669529E+03)
 number of electron      60.0000000 magnetization 
 augmentation part       60.0000000 magnetization 

 Free energy of the ion-electron system (eV)
  ---------------------------------------------------
  alpha Z        PSCENC =        30.28014394
  Ewald energy   TEWEN  =     14975.37070712
  -Hartree energ DENC   =    -16930.57457869
  -exchange      EXHF   =         0.00000000
  -V(xc)+E(xc)   XCENC  =        40.42313226
  PAW double counting   =      1677.12035881    -1579.18296132
  entropy T*S    EENTRO =        -0.00013837
  eigenvalues    EBANDS =      -350.26784851
  atomic energy  EATOM  =      2112.49373795
  Solvation  Ediel_sol  =         0.00000000
  ---------------------------------------------------
  free energy    TOTEN  =       -24.33744682 eV

  energy without entropy =      -24.33730846  energy(sigma->0) =      -24.33737764


--------------------------------------------------------------------------------------------------------




--------------------------------------- Iteration      1(   3)  ---------------------------------------


     EDDAV:  cpu time    0.9745: real time    0.9759
       DOS:  cpu time    0.0008: real time    0.0008
    --------------------------------------------
      LOOP:  cpu time    0.9753: real time    0.9767

 eigenvalue-minimisations  :  1912
 total energy-change (2. order) :-0.3873534E+02  (-0.3806943E+02)
 number of electron      60.0000000 magnetization 
 augmentation part       60.0000000 magnetization 

 Free energy of the ion-electron system (eV)
  ---------------------------------------------------
  alpha Z        PSCENC =        30.28014394
  Ewald energy   TEWEN  =     14975.37070712
  -Hartree energ DENC   =    -16930.57457869
  -exchange      EXHF   =         0.00000000
  -V(xc)+E(xc)   XCENC  =        40.42313226
  PAW double counting   =      1677.12035881    -1579.18296132
  entropy T*S    EENTRO =        -0.00030796
  eigenvalues    EBANDS =      -389.00302276
  atomic energy  EATOM  =      2112.49373795
  Solvation  Ediel_sol  =         0.00000000
  ---------------------------------------------------
  free energy    TOTEN  =       -63.07279066 eV

  energy without entropy =      -63.07248271  energy(sigma->0) =      -63.07263669


--------------------------------------------------------------------------------------------------------




--------------------------------------- Iteration      1(   4)  ---------------------------------------


     EDDAV:  cpu time    1.1383: real time    1.1410
       DOS:  cpu time    0.0008: real time    0.0008
    --------------------------------------------
      LOOP:  cpu time    1.1392: real time    1.1418

 eigenvalue-minimisations  :  2376
 total energy-change (2. order) :-0.1464204E+01  (-0.1456346E+01)
 number of electron      60.0000000 magnetization 
 augmentation part       60.0000000 magnetization 

 Free energy of the ion-electron system (eV)
  ---------------------------------------------------
  alpha Z        PSCENC =        30.28014394
  Ewald energy   TEWEN  =     14975.37070712
  -Hartree energ DENC   =    -16930.57457869
  -exchange      EXHF   =         0.00000000
  -V(xc)+E(xc)   XCENC  =        40.42313226
  PAW double counting   =      1677.12035881    -1579.18296132
  entropy T*S    EENTRO =        -0.00031915
  eigenvalues    EBANDS =      -390.46721539
  atomic energy  EATOM  =      2112.49373795
  Solvation  Ediel_sol  =         0.00000000
  ---------------------------------------------------
  free energy    TOTEN  =       -64.53699449 eV

  energy without entropy =      -64.53667534  energy(sigma->0) =      -64.53683491


--------------------------------------------------------------------------------------------------------




--------------------------------------- Iteration      1(   5)  ---------------------------------------


     EDDAV:  cpu time    1.1821: real time    1.1843
       DOS:  cpu time    0.0008: real time    0.0008
    CHARGE:  cpu time    0.0495: real time    0.0495
    MIXING:  cpu time    0.0007: real time    0.0007
    --------------------------------------------
      LOOP:  cpu time    1.2331: real time    1.2353

 eigenvalue-minimisations  :  2440
 total energy-change (2. order) :-0.3780293E-01  (-0.3776270E-01)
 number of electron      59.9999987 magnetization 
 augmentation part       -6.5348461 magnetization 

 Broyden mixing:
  rms(total) = 0.17701E+01    rms(broyden)= 0.17700E+01
  rms(prec ) = 0.17755E+01
  weight for this iteration     100.00

 Free energy of the ion-electron system (eV)
  ---------------------------------------------------
  alpha Z        PSCENC =        30.28014394
  Ewald energy   TEWEN  =     14975.37070712
  -Hartree energ DENC   =    -16930.57457869
  -exchange      EXHF   =         0.00000000
  -V(xc)+E(xc)   XCENC  =        40.42313226
  PAW double counting   =      1677.12035881    -1579.18296132
  entropy T*S    EENTRO =        -0.00029915
  eigenvalues    EBANDS =      -390.50503832
  atomic energy  EATOM  =      2112.49373795
  Solvation  Ediel_sol  =         0.00000000
  ---------------------------------------------------
  free energy    TOTEN  =       -64.57479742 eV

  energy without entropy =      -64.57449827  energy(sigma->0) =      -64.57464784


--------------------------------------------------------------------------------------------------------




--------------------------------------- Iteration      1(   6)  ---------------------------------------


    POTLOK:  cpu time    0.0192: real time    0.0206
    SETDIJ:  cpu time    0.0652: real time    0.0652
     EDDAV:  cpu time    1.0346: real time    1.0360
       DOS:  cpu time    0.0008: real time    0.0008
    CHARGE:  cpu time    0.0491: real time    0.0491
    MIXING:  cpu time    0.0008: real time    0.0008
    --------------------------------------------
      LOOP:  cpu time    1.1695: real time    1.1723

 eigenvalue-minimisations  :  2104
 total energy-change (2. order) : 0.3343124E+00  (-0.2099828E-01)
 number of electron      59.9999987 magnetization 
 augmentation part       -6.4971882 magnetization 

 Broyden mixing:
  rms(total) = 0.10490E+01    rms(broyden)= 0.10490E+01
  rms(prec ) = 0.10522E+01
  weight for this iteration     100.00

 eigenvalues of (default mixing * dielectric matrix)
  average eigenvalue GAMMA=   2.4433
  2.4433

 Free energy of the ion-electron system (eV)
  ---------------------------------------------------
  alpha Z        PSCENC =        30.28014394
  Ewald energy   TEWEN  =     14975.37070712
  -Hartree energ DENC   =    -16940.36104679
  -exchange      EXHF   =         0.00000000
  -V(xc)+E(xc)   XCENC  =        41.48384970
  PAW double counting   =      3147.13518040    -3049.66236898
  entropy T*S    EENTRO =        -0.00024640
  eigenvalues    EBANDS =      -380.98044198
  atomic energy  EATOM  =      2112.49373795
  Solvation  Ediel_sol  =         0.00000000
  ---------------------------------------------------
  free energy    TOTEN  =       -64.24048505 eV

  energy without entropy =      -64.24023865  energy(sigma->0) =      -64.24036185


--------------------------------------------------------------------------------------------------------




--------------------------------------- Iteration      1(   7)  ---------------------------------------


    POTLOK:  cpu time    0.0191: real time    0.0202
    SETDIJ:  cpu time    0.0650: real time    0.0650
     EDDAV:  cpu time    1.0020: real time    1.0042
       DOS:  cpu time    0.0008: real time    0.0008
    CHARGE:  cpu time    0.0485: real time    0.0485
    MIXING:  cpu time    0.0007: real time    0.0007
    --------------------------------------------
      LOOP:  cpu time    1.1361: real time    1.1394

 eigenvalue-minimisations  :  2016
 total energy-change (2. order) : 0.1463427E+00  (-0.4029398E-01)
 number of electron      59.9999987 magnetization 
 augmentation part       -6.4468958 magnetization 

 Broyden mixing:
  rms(total) = 0.52217E-01    rms(broyden)= 0.52216E-01
  rms(prec ) = 0.53355E-01
  weight for this iteration     100.00

 eigenvalues of (default mixing * dielectric matrix)
  average eigenvalue GAMMA=   1.7456
  1.0054  2.4859

 Free energy of the ion-electron system (eV)
  ---------------------------------------------------
  alpha Z        PSCENC =        30.28014394
  Ewald energy   TEWEN  =     14975.37070712
  -Hartree energ DENC   =    -16959.21589799
  -exchange      EXHF   =         0.00000000
  -V(xc)+E(xc)   XCENC  =        43.18870650
  PAW double counting   =      6283.00331404    -6186.09813198
  entropy T*S    EENTRO =        -0.00028172
  eigenvalues    EBANDS =      -363.11644024
  atomic energy  EATOM  =      2112.49373795
  Solvation  Ediel_sol  =         0.00000000
  ---------------------------------------------------
  free energy    TOTEN  =       -64.09414239 eV

  energy without entropy =      -64.09386067  energy(sigma->0) =      -64.09400153


--------------------------------------------------------------------------------------------------------




--------------------------------------- Iteration      1(   8)  ---------------------------------------


    POTLOK:  cpu time    0.0189: real time    0.0203
    SETDIJ:  cpu time    0.0650: real time    0.0651
     EDDAV:  cpu time    1.0485: real time    1.0506
       DOS:  cpu time    0.0009: real time    0.0009
    CHARGE:  cpu time    0.0493: real time    0.0493
    MIXING:  cpu time    0.0007: real time    0.0007
    --------------------------------------------
      LOOP:  cpu time    1.1834: real time    1.1869

 eigenvalue-minimisations  :  2120
 total energy-change (2. order) :-0.9152209E-03  (-0.2871591E-02)
 number of electron      59.9999987 magnetization 
 augmentation part       -6.4544845 magnetization 

 Broyden mixing:
  rms(total) = 0.32636E-01    rms(broyden)= 0.32636E-01
  rms(prec ) = 0.33402E-01
  weight for this iteration     100.00

 eigenvalues of (default mixing * dielectric matrix)
  average eigenvalue GAMMA=   1.5431
  2.5185  1.0554  1.0554

 Free energy of the ion-electron system (eV)
  ---------------------------------------------------
  alpha Z        PSCENC =        30.28014394
  Ewald energy   TEWEN  =     14975.37070712
  -Hartree energ DENC   =    -16959.63712430
  -exchange      EXHF   =         0.00000000
  -V(xc)+E(xc)   XCENC  =        43.21595722
  PAW double counting   =      6372.77360969    -6275.82018175
  entropy T*S    EENTRO =        -0.00025016
  eigenvalues    EBANDS =      -362.77165732
  atomic energy  EATOM  =      2112.49373795
  Solvation  Ediel_sol  =         0.00000000
  ---------------------------------------------------
  free energy    TOTEN  =       -64.09505761 eV

  energy without entropy =      -64.09480745  energy(sigma->0) =      -64.09493253


--------------------------------------------------------------------------------------------------------




--------------------------------------- Iteration      1(   9)  ---------------------------------------


    POTLOK:  cpu time    0.0191: real time    0.0206
    SETDIJ:  cpu time    0.0650: real time    0.0650
     EDDAV:  cpu time    1.1080: real time    1.1097
       DOS:  cpu time    0.0008: real time    0.0008
    CHARGE:  cpu time    0.0494: real time    0.0494
    MIXING:  cpu time    0.0007: real time    0.0007
    --------------------------------------------
      LOOP:  cpu time    1.2429: real time    1.2462

 eigenvalue-minimisations  :  2296
 total energy-change (2. order) : 0.2944084E-03  (-0.2184381E-03)
 number of electron      59.9999987 magnetization 
 augmentation part       -6.4566940 magnetization 

 Broyden mixing:
  rms(total) = 0.22029E-01    rms(broyden)= 0.22029E-01
  rms(prec ) = 0.22613E-01
  weight for this iteration     100.00

 eigenvalues of (default mixing * dielectric matrix)
  average eigenvalue GAMMA=   1.6759
  2.0972  2.0972  0.9253  1.5838

 Free energy of the ion-electron system (eV)
  ---------------------------------------------------
  alpha Z        PSCENC =        30.28014394
  Ewald energy   TEWEN  =     14975.37070712
  -Hartree energ DENC   =    -16960.48246643
  -exchange      EXHF   =         0.00000000
  -V(xc)+E(xc)   XCENC  =        43.23437792
  PAW double counting   =      6407.78253119    -6310.80357757
  entropy T*S    EENTRO =        -0.00024527
  eigenvalues    EBANDS =      -361.96997204
  atomic energy  EATOM  =      2112.49373795
  Solvation  Ediel_sol  =         0.00000000
  ---------------------------------------------------
  free energy    TOTEN  =       -64.09476320 eV

  energy without entropy =      -64.09451793  energy(sigma->0) =      -64.09464057


--------------------------------------------------------------------------------------------------------




--------------------------------------- Iteration      1(  10)  ---------------------------------------


    POTLOK:  cpu time    0.0190: real time    0.0207
    SETDIJ:  cpu time    0.0650: real time    0.0650
     EDDAV:  cpu time    1.0001: real time    1.0017
       DOS:  cpu time    0.0008: real time    0.0008
    CHARGE:  cpu time    0.0493: real time    0.0493
    MIXING:  cpu time    0.0007: real time    0.0007
    --------------------------------------------
      LOOP:  cpu time    1.1351: real time    1.1383

 eigenvalue-minimisations  :  2016
 total energy-change (2. order) : 0.2504422E-03  (-0.1132478E-03)
 number of electron      59.9999987 magnetization 
 augmentation part       -6.4587323 magnetization 

 Broyden mixing:
  rms(total) = 0.81868E-02    rms(broyden)= 0.81868E-02
  rms(prec ) = 0.88121E-02
  weight for this iteration     100.00

 eigenvalues of (default mixing * dielectric matrix)
  average eigenvalue GAMMA=   1.6465
  2.4367  2.4367  0.9564  1.2014  1.2014

 Free energy of the ion-electron system (eV)
  ---------------------------------------------------
  alpha Z        PSCENC =        30.28014394
  Ewald energy   TEWEN  =     14975.37070712
  -Hartree energ DENC   =    -16961.87881494
  -exchange      EXHF   =         0.00000000
  -V(xc)+E(xc)   XCENC  =        43.22373703
  PAW double counting   =      6343.14481858    -6246.12725275
  entropy T*S    EENTRO =        -0.00024026
  eigenvalues    EBANDS =      -360.60134942
  atomic energy  EATOM  =      2112.49373795
  Solvation  Ediel_sol  =         0.00000000
  ---------------------------------------------------
  free energy    TOTEN  =       -64.09451276 eV

  energy without entropy =      -64.09427250  energy(sigma->0) =      -64.09439263


--------------------------------------------------------------------------------------------------------




--------------------------------------- Iteration      1(  11)  ---------------------------------------


    POTLOK:  cpu time    0.0207: real time    0.0209
    SETDIJ:  cpu time    0.0650: real time    0.0650
     EDDAV:  cpu time    1.0469: real time    1.0485
       DOS:  cpu time    0.0008: real time    0.0008
    CHARGE:  cpu time    0.0486: real time    0.0486
    MIXING:  cpu time    0.0007: real time    0.0007
    --------------------------------------------
      LOOP:  cpu time    1.1827: real time    1.1846

 eigenvalue-minimisations  :  2136
 total energy-change (2. order) : 0.8067308E-04  (-0.2332939E-04)
 number of electron      59.9999987 magnetization 
 augmentation part       -6.4584445 magnetization 

 Broyden mixing:
  rms(total) = 0.52895E-02    rms(broyden)= 0.52895E-02
  rms(prec ) = 0.57981E-02
  weight for this iteration     100.00

 eigenvalues of (default mixing * dielectric matrix)
  average eigenvalue GAMMA=   1.6067
  2.4752  2.4752  1.4537  1.4537  0.8911  0.8911

 Free energy of the ion-electron system (eV)
  ---------------------------------------------------
  alpha Z        PSCENC =        30.28014394
  Ewald energy   TEWEN  =     14975.37070712
  -Hartree energ DENC   =    -16962.96529009
  -exchange      EXHF   =         0.00000000
  -V(xc)+E(xc)   XCENC  =        43.24915903
  PAW double counting   =      6372.71325879    -6275.69181950
  entropy T*S    EENTRO =        -0.00024077
  eigenvalues    EBANDS =      -359.54408855
  atomic energy  EATOM  =      2112.49373795
  Solvation  Ediel_sol  =         0.00000000
  ---------------------------------------------------
  free energy    TOTEN  =       -64.09443209 eV

  energy without entropy =      -64.09419132  energy(sigma->0) =      -64.09431170


--------------------------------------------------------------------------------------------------------




--------------------------------------- Iteration      1(  12)  ---------------------------------------


    POTLOK:  cpu time    0.0192: real time    0.0207
    SETDIJ:  cpu time    0.0650: real time    0.0650
     EDDAV:  cpu time    0.9775: real time    0.9788
       DOS:  cpu time    0.0008: real time    0.0008
    CHARGE:  cpu time    0.0492: real time    0.0492
    MIXING:  cpu time    0.0008: real time    0.0008
    --------------------------------------------
      LOOP:  cpu time    1.1124: real time    1.1153

 eigenvalue-minimisations  :  1952
 total energy-change (2. order) :-0.7054095E-04  (-0.6296559E-05)
 number of electron      59.9999987 magnetization 
 augmentation part       -6.4583544 magnetization 

 Broyden mixing:
  rms(total) = 0.15695E-02    rms(broyden)= 0.15695E-02
  rms(prec ) = 0.23549E-02
  weight for this iteration     100.00

 eigenvalues of (default mixing * dielectric matrix)
  average eigenvalue GAMMA=   1.7452
  3.0895  2.5368  1.7682  1.7682  1.1345  0.9598  0.9598

 Free energy of the ion-electron system (eV)
  ---------------------------------------------------
  alpha Z        PSCENC =        30.28014394
  Ewald energy   TEWEN  =     14975.37070712
  -Hartree energ DENC   =    -16963.82727976
  -exchange      EXHF   =         0.00000000
  -V(xc)+E(xc)   XCENC  =        43.25280837
  PAW double counting   =      6360.84432569    -6263.82170471
  entropy T*S    EENTRO =        -0.00024092
  eigenvalues    EBANDS =      -358.68700030
  atomic energy  EATOM  =      2112.49373795
  Solvation  Ediel_sol  =         0.00000000
  ---------------------------------------------------
  free energy    TOTEN  =       -64.09450263 eV

  energy without entropy =      -64.09426171  energy(sigma->0) =      -64.09438217


--------------------------------------------------------------------------------------------------------




--------------------------------------- Iteration      1(  13)  ---------------------------------------


    POTLOK:  cpu time    0.0192: real time    0.0208
    SETDIJ:  cpu time    0.0650: real time    0.0650
     EDDAV:  cpu time    0.9511: real time    0.9525
       DOS:  cpu time    0.0008: real time    0.0008
    CHARGE:  cpu time    0.0489: real time    0.0489
    MIXING:  cpu time    0.0008: real time    0.0008
    --------------------------------------------
      LOOP:  cpu time    1.0858: real time    1.0888

 eigenvalue-minimisations  :  1888
 total energy-change (2. order) :-0.1444206E-03  (-0.1008271E-04)
 number of electron      59.9999987 magnetization 
 augmentation part       -6.4579909 magnetization 

 Broyden mixing:
  rms(total) = 0.22823E-02    rms(broyden)= 0.22823E-02
  rms(prec ) = 0.24794E-02
  weight for this iteration     100.00

 eigenvalues of (default mixing * dielectric matrix)
  average eigenvalue GAMMA=   1.7252
  3.3873  2.5267  1.9295  1.3219  1.3219  1.4049  0.9546  0.9546

 Free energy of the ion-electron system (eV)
  ---------------------------------------------------
  alpha Z        PSCENC =        30.28014394
  Ewald energy   TEWEN  =     14975.37070712
  -Hartree energ DENC   =    -16965.08595449
  -exchange      EXHF   =         0.00000000
  -V(xc)+E(xc)   XCENC  =        43.26346697
  PAW double counting   =      6357.09693281    -6260.07456905
  entropy T*S    EENTRO =        -0.00024245
  eigenvalues    EBANDS =      -357.43886983
  atomic energy  EATOM  =      2112.49373795
  Solvation  Ediel_sol  =         0.00000000
  ---------------------------------------------------
  free energy    TOTEN  =       -64.09464705 eV

  energy without entropy =      -64.09440460  energy(sigma->0) =      -64.09452583


--------------------------------------------------------------------------------------------------------




--------------------------------------- Iteration      1(  14)  ---------------------------------------


    POTLOK:  cpu time    0.0193: real time    0.0210
    SETDIJ:  cpu time    0.0649: real time    0.0650
     EDDAV:  cpu time    0.7878: real time    0.7890
       DOS:  cpu time    0.0008: real time    0.0008
    CHARGE:  cpu time    0.0494: real time    0.0494
    MIXING:  cpu time    0.0008: real time    0.0008
    --------------------------------------------
      LOOP:  cpu time    0.9230: real time    0.9260

 eigenvalue-minimisations  :  1408
 total energy-change (2. order) :-0.1311006E-03  (-0.1236866E-05)
 number of electron      59.9999987 magnetization 
 augmentation part       -6.4579622 magnetization 

 Broyden mixing:
  rms(total) = 0.15052E-02    rms(broyden)= 0.15052E-02
  rms(prec ) = 0.16519E-02
  weight for this iteration     100.00

 eigenvalues of (default mixing * dielectric matrix)
  average eigenvalue GAMMA=   1.9211
  4.2878  2.6402  2.6402  1.8100  1.8100  1.2352  0.9650  0.9650  0.9368

 Free energy of the ion-electron system (eV)
  ---------------------------------------------------
  alpha Z        PSCENC =        30.28014394
  Ewald energy   TEWEN  =     14975.37070712
  -Hartree energ DENC   =    -16965.54660762
  -exchange      EXHF   =         0.00000000
  -V(xc)+E(xc)   XCENC  =        43.26549987
  PAW double counting   =      6356.94612358    -6259.92389272
  entropy T*S    EENTRO =        -0.00024309
  eigenvalues    EBANDS =      -356.98024716
  atomic energy  EATOM  =      2112.49373795
  Solvation  Ediel_sol  =         0.00000000
  ---------------------------------------------------
  free energy    TOTEN  =       -64.09477815 eV

  energy without entropy =      -64.09453506  energy(sigma->0) =      -64.09465661


--------------------------------------------------------------------------------------------------------




--------------------------------------- Iteration      1(  15)  ---------------------------------------


    POTLOK:  cpu time    0.0194: real time    0.0209
    SETDIJ:  cpu time    0.0650: real time    0.0650
     EDDAV:  cpu time    0.8875: real time    0.8892
       DOS:  cpu time    0.0009: real time    0.0009
    CHARGE:  cpu time    0.0497: real time    0.0497
    MIXING:  cpu time    0.0010: real time    0.0010
    --------------------------------------------
      LOOP:  cpu time    1.0234: real time    1.0266

 eigenvalue-minimisations  :  1672
 total energy-change (2. order) :-0.2403363E-03  (-0.3098712E-05)
 number of electron      59.9999987 magnetization 
 augmentation part       -6.4578448 magnetization 

 Broyden mixing:
  rms(total) = 0.12827E-02    rms(broyden)= 0.12827E-02
  rms(prec ) = 0.13074E-02
  weight for this iteration     100.00

 eigenvalues of (default mixing * dielectric matrix)
  average eigenvalue GAMMA=   1.9144
  5.4950  2.5614  2.5614  1.6104  1.6104  1.2716  1.2716  0.9338  0.9338  0.8947

 Free energy of the ion-electron system (eV)
  ---------------------------------------------------
  alpha Z        PSCENC =        30.28014394
  Ewald energy   TEWEN  =     14975.37070712
  -Hartree energ DENC   =    -16966.27796663
  -exchange      EXHF   =         0.00000000
  -V(xc)+E(xc)   XCENC  =        43.26791614
  PAW double counting   =      6360.64891503    -6263.62700183
  entropy T*S    EENTRO =        -0.00024427
  eigenvalues    EBANDS =      -356.25122593
  atomic energy  EATOM  =      2112.49373795
  Solvation  Ediel_sol  =         0.00000000
  ---------------------------------------------------
  free energy    TOTEN  =       -64.09501849 eV

  energy without entropy =      -64.09477422  energy(sigma->0) =      -64.09489635


--------------------------------------------------------------------------------------------------------




--------------------------------------- Iteration      1(  16)  ---------------------------------------


    POTLOK:  cpu time    0.0196: real time    0.0212
    SETDIJ:  cpu time    0.0652: real time    0.0652
     EDDAV:  cpu time    0.7725: real time    0.7746
       DOS:  cpu time    0.0008: real time    0.0008
    CHARGE:  cpu time    0.0488: real time    0.0488
    MIXING:  cpu time    0.0010: real time    0.0010
    --------------------------------------------
      LOOP:  cpu time    0.9079: real time    0.9116

 eigenvalue-minimisations  :  1360
 total energy-change (2. order) :-0.3305191E-04  (-0.2221160E-06)
 number of electron      59.9999987 magnetization 
 augmentation part       -6.4578323 magnetization 

 Broyden mixing:
  rms(total) = 0.45175E-03    rms(broyden)= 0.45175E-03
  rms(prec ) = 0.48510E-03
  weight for this iteration     100.00

 eigenvalues of (default mixing * dielectric matrix)
  average eigenvalue GAMMA=   2.0725
  6.4879  2.7864  2.7864  2.0524  1.6398  1.6398  1.6092  0.9794  0.9794  0.9183
  0.9183

 Free energy of the ion-electron system (eV)
  ---------------------------------------------------
  alpha Z        PSCENC =        30.28014394
  Ewald energy   TEWEN  =     14975.37070712
  -Hartree energ DENC   =    -16966.40031809
  -exchange      EXHF   =         0.00000000
  -V(xc)+E(xc)   XCENC  =        43.26781666
  PAW double counting   =      6359.72036005    -6262.69805904
  entropy T*S    EENTRO =        -0.00024412
  eigenvalues    EBANDS =      -356.12919600
  atomic energy  EATOM  =      2112.49373795
  Solvation  Ediel_sol  =         0.00000000
  ---------------------------------------------------
  free energy    TOTEN  =       -64.09505154 eV

  energy without entropy =      -64.09480742  energy(sigma->0) =      -64.09492948


--------------------------------------------------------------------------------------------------------




--------------------------------------- Iteration      1(  17)  ---------------------------------------


    POTLOK:  cpu time    0.0194: real time    0.0209
    SETDIJ:  cpu time    0.0650: real time    0.0650
     EDDAV:  cpu time    0.7771: real time    0.7785
       DOS:  cpu time    0.0008: real time    0.0008
    CHARGE:  cpu time    0.0489: real time    0.0489
    MIXING:  cpu time    0.0010: real time    0.0010
    --------------------------------------------
      LOOP:  cpu time    0.9123: real time    0.9151

 eigenvalue-minimisations  :  1368
 total energy-change (2. order) :-0.6175201E-04  (-0.2035165E-06)
 number of electron      59.9999987 magnetization 
 augmentation part       -6.4578632 magnetization 

 Broyden mixing:
  rms(total) = 0.17623E-03    rms(broyden)= 0.17623E-03
  rms(prec ) = 0.19414E-03
  weight for this iteration     100.00

 eigenvalues of (default mixing * dielectric matrix)
  average eigenvalue GAMMA=   2.0592
  7.3328  3.1375  2.4317  2.0783  1.6152  1.6152  1.6355  0.9247  0.9597  0.9597
  1.0102  1.0102

 Free energy of the ion-electron system (eV)
  ---------------------------------------------------
  alpha Z        PSCENC =        30.28014394
  Ewald energy   TEWEN  =     14975.37070712
  -Hartree energ DENC   =    -16966.50934351
  -exchange      EXHF   =         0.00000000
  -V(xc)+E(xc)   XCENC  =        43.26741770
  PAW double counting   =      6360.38273713    -6263.36012707
  entropy T*S    EENTRO =        -0.00024399
  eigenvalues    EBANDS =      -356.02014255
  atomic energy  EATOM  =      2112.49373795
  Solvation  Ediel_sol  =         0.00000000
  ---------------------------------------------------
  free energy    TOTEN  =       -64.09511329 eV

  energy without entropy =      -64.09486930  energy(sigma->0) =      -64.09499130


--------------------------------------------------------------------------------------------------------




--------------------------------------- Iteration      1(  18)  ---------------------------------------


    POTLOK:  cpu time    0.0195: real time    0.0209
    SETDIJ:  cpu time    0.0652: real time    0.0652
     EDDAV:  cpu time    0.7428: real time    0.7443
       DOS:  cpu time    0.0008: real time    0.0008
    CHARGE:  cpu time    0.0494: real time    0.0494
    MIXING:  cpu time    0.0011: real time    0.0011
    --------------------------------------------
      LOOP:  cpu time    0.8787: real time    0.8817

 eigenvalue-minimisations  :  1264
 total energy-change (2. order) :-0.1387005E-04  (-0.3758989E-07)
 number of electron      59.9999987 magnetization 
 augmentation part       -6.4578691 magnetization 

 Broyden mixing:
  rms(total) = 0.98499E-04    rms(broyden)= 0.98499E-04
  rms(prec ) = 0.11521E-03
  weight for this iteration     100.00

 eigenvalues of (default mixing * dielectric matrix)
  average eigenvalue GAMMA=   2.0786
  7.7149  3.1739  2.5237  2.2376  1.6919  1.6919  1.5247  1.5247  1.0389  1.0389
  1.0394  0.9105  0.9105

 Free energy of the ion-electron system (eV)
  ---------------------------------------------------
  alpha Z        PSCENC =        30.28014394
  Ewald energy   TEWEN  =     14975.37070712
  -Hartree energ DENC   =    -16966.53276845
  -exchange      EXHF   =         0.00000000
  -V(xc)+E(xc)   XCENC  =        43.26727344
  PAW double counting   =      6360.05778453    -6263.03521071
  entropy T*S    EENTRO =        -0.00024401
  eigenvalues    EBANDS =      -355.99655095
  atomic energy  EATOM  =      2112.49373795
  Solvation  Ediel_sol  =         0.00000000
  ---------------------------------------------------
  free energy    TOTEN  =       -64.09512716 eV

  energy without entropy =      -64.09488316  energy(sigma->0) =      -64.09500516


--------------------------------------------------------------------------------------------------------




--------------------------------------- Iteration      1(  19)  ---------------------------------------


    POTLOK:  cpu time    0.0197: real time    0.0211
    SETDIJ:  cpu time    0.0650: real time    0.0650
     EDDAV:  cpu time    0.7557: real time    0.7570
       DOS:  cpu time    0.0008: real time    0.0008
    CHARGE:  cpu time    0.0488: real time    0.0488
    MIXING:  cpu time    0.0011: real time    0.0011
    --------------------------------------------
      LOOP:  cpu time    0.8911: real time    0.8938

 eigenvalue-minimisations  :  1320
 total energy-change (2. order) :-0.1941705E-04  (-0.3801817E-07)
 number of electron      59.9999987 magnetization 
 augmentation part       -6.4578770 magnetization 

 Broyden mixing:
  rms(total) = 0.66329E-04    rms(broyden)= 0.66329E-04
  rms(prec ) = 0.72968E-04
  weight for this iteration     100.00

 eigenvalues of (default mixing * dielectric matrix)
  average eigenvalue GAMMA=   2.1765
  8.0368  4.3939  2.8046  2.4657  1.6075  1.6075  1.9721  1.6973  1.0965  1.0965
  0.9480  0.9480  0.8980  0.8980

 Free energy of the ion-electron system (eV)
  ---------------------------------------------------
  alpha Z        PSCENC =        30.28014394
  Ewald energy   TEWEN  =     14975.37070712
  -Hartree energ DENC   =    -16966.55141805
  -exchange      EXHF   =         0.00000000
  -V(xc)+E(xc)   XCENC  =        43.26727940
  PAW double counting   =      6359.99719443    -6262.97460919
  entropy T*S    EENTRO =        -0.00024405
  eigenvalues    EBANDS =      -355.97793812
  atomic energy  EATOM  =      2112.49373795
  Solvation  Ediel_sol  =         0.00000000
  ---------------------------------------------------
  free energy    TOTEN  =       -64.09514658 eV

  energy without entropy =      -64.09490253  energy(sigma->0) =      -64.09502456


--------------------------------------------------------------------------------------------------------




--------------------------------------- Iteration      1(  20)  ---------------------------------------


    POTLOK:  cpu time    0.0215: real time    0.0217
    SETDIJ:  cpu time    0.0650: real time    0.0650
     EDDAV:  cpu time    0.7317: real time    0.7329
       DOS:  cpu time    0.0008: real time    0.0008
    --------------------------------------------
      LOOP:  cpu time    0.9022: real time    0.9036

 eigenvalue-minimisations  :  1256
 total energy-change (2. order) :-0.9592738E-05  (-0.3303709E-07)
 number of electron      59.9999987 magnetization 
 augmentation part       -6.4578770 magnetization 

 Free energy of the ion-electron system (eV)
  ---------------------------------------------------
  alpha Z        PSCENC =        30.28014394
  Ewald energy   TEWEN  =     14975.37070712
  -Hartree energ DENC   =    -16966.55887193
  -exchange      EXHF   =         0.00000000
  -V(xc)+E(xc)   XCENC  =        43.26721297
  PAW double counting   =      6359.83721796    -6262.81466316
  entropy T*S    EENTRO =        -0.00024408
  eigenvalues    EBANDS =      -355.97039693
  atomic energy  EATOM  =      2112.49373795
  Solvation  Ediel_sol  =         0.00000000
  ---------------------------------------------------
  free energy    TOTEN  =       -64.09515617 eV

  energy without entropy =      -64.09491209  energy(sigma->0) =      -64.09503413


--------------------------------------------------------------------------------------------------------




 the core state eigenenergies are
   1-  1s  -2078.3798  2s   -168.4106  2p   -118.8962
   2-  1s  -2078.3798  2s   -168.4106  2p   -118.8962
   3-  1s  -2078.5042  2s   -168.5322  2p   -119.0182
   4-  1s  -2078.5042  2s   -168.5322  2p   -119.0182
   5-  1s  -2078.5716  2s   -168.6001  2p   -119.0861
   6-  1s  -2078.5716  2s   -168.6001  2p   -119.0861
   7-  1s  -2078.5716  2s   -168.6001  2p   -119.0861
   8-  1s  -2078.5716  2s   -168.6001  2p   -119.0861
   9-  1s  -2078.5042  2s   -168.5322  2p   -119.0182
  10-  1s  -2078.5042  2s   -168.5322  2p   -119.0182
  11-  1s  -2078.3798  2s   -168.4106  2p   -118.8962
  12-  1s  -2078.3798  2s   -168.4106  2p   -118.8962
 
 E-fermi :   1.0488     XC(G=0):  -5.0895     alpha+bet : -5.5572


 k-point     1 :       0.0000    0.0000    0.0000
  band No.  band energies     occupation 
      1     -14.9490      2.00000
      2     -14.7673      2.00000
      3     -14.7101      2.00000
      4     -12.4762      2.00000
      5     -12.1657      2.00000
      6     -12.0077      2.00000
      7      -8.7192      2.00000
      8      -8.5530      2.00000
      9      -8.5098      2.00000
     10      -6.0589      2.00000
     11      -5.6239      2.00000
     12      -5.1776      2.00000
     13      -4.7888      2.00000
     14      -4.5832      2.00000
     15      -4.2696      2.00000
     16      -4.1763      2.00000
     17      -4.0371      2.00000
     18      -3.8463      2.00000
     19      -3.4876      2.00000
     20      -3.3264      2.00000
     21      -3.2896      2.00000
     22      -2.0113      2.00000
     23      -1.8272      2.00000
     24      -1.6796      2.00000
     25      -1.6221      2.00000
     26      -1.5630      2.00000
     27      -1.1207      2.00000
     28      -0.5619      2.00000
     29       0.3330      2.00000
     30       0.9021      2.00000
     31       1.0180      1.99999
     32       1.4397      0.00000
     33       1.4946      0.00000
     34       1.6364      0.00000
     35       1.6661      0.00000
     36       1.9291      0.00000
     37       2.6512      0.00000
     38       2.8599      0.00000
     39       2.8987      0.00000
     40       3.6027      0.00000

 k-point     2 :       0.1250    0.0000    0.0000
  band No.  band energies     occupation 
      1     -14.7672      2.00000
      2     -14.5857      2.00000
      3     -14.5287      2.00000
      4     -12.2877      2.00000
      5     -11.9770      2.00000
      6     -11.8188      2.00000
      7      -8.8812      2.00000
      8      -8.7150      2.00000
      9      -8.6721      2.00000
     10      -5.9048      2.00000
     11      -5.4729      2.00000
     12      -5.0685      2.00000
     13      -5.0400      2.00000
     14      -4.5884      2.00000
     15      -4.4278      2.00000
     16      -4.2467      2.00000
     17      -4.2246      2.00000
     18      -4.0809      2.00000
     19      -4.0388      2.00000
     20      -4.0249      2.00000
     21      -3.8815      2.00000
     22      -2.5575      2.00000
     23      -2.3210      2.00000
     24      -2.1994      2.00000
     25      -1.9399      2.00000
     26      -1.5831      2.00000
     27      -1.0113      2.00000
     28      -0.6604      2.00000
     29       0.2479      2.00000
     30       1.0489      0.98935
     31       1.0669      0.01066
     32       1.6322      0.00000
     33       1.7809      0.00000
     34       2.7405      0.00000
     35       2.8157      0.00000
     36       2.8702      0.00000
     37       2.8908      0.00000
     38       3.0107      0.00000
     39       3.1281      0.00000
     40       3.8314      0.00000

 k-point     3 :       0.2500    0.0000    0.0000
  band No.  band energies     occupation 
      1     -14.2269      2.00000
      2     -14.0462      2.00000
      3     -13.9902      2.00000
      4     -11.7252      2.00000
      5     -11.4139      2.00000
      6     -11.2549      2.00000
      7      -9.5732      2.00000
      8      -9.4048      2.00000
      9      -9.3604      2.00000
     10      -6.2888      2.00000
     11      -5.9147      2.00000
     12      -5.6859      2.00000
     13      -5.4640      2.00000
     14      -5.0475      2.00000
     15      -5.0106      2.00000
     16      -4.8436      2.00000
     17      -4.8038      2.00000
     18      -4.6676      2.00000
     19      -3.9889      2.00000
     20      -3.6010      2.00000
     21      -3.4377      2.00000
     22      -2.9600      2.00000
     23      -2.6439      2.00000
     24      -2.3739      2.00000
     25      -1.8862      2.00000
     26      -1.4355      2.00000
     27      -1.0672      2.00000
     28      -0.8265      2.00000
     29      -0.1972      2.00000
     30       0.5598      2.00000
     31       1.3123      0.00000
     32       1.3690      0.00000
     33       1.6357      0.00000
     34       1.6688      0.00000
     35       2.2644      0.00000
     36       2.4304      0.00000
     37       3.1404      0.00000
     38       3.4669      0.00000
     39       3.5285      0.00000
     40       3.6517      0.00000

 k-point     4 :       0.3750    0.0000    0.0000
  band No.  band energies     occupation 
      1     -13.3471      2.00000
      2     -13.1679      2.00000
      3     -13.1135      2.00000
      4     -10.8181      2.00000
      5     -10.7986      2.00000
      6     -10.6451      2.00000
      7     -10.5967      2.00000
      8     -10.4855      2.00000
      9     -10.3245      2.00000
     10      -7.9718      2.00000
     11      -7.6405      2.00000
     12      -7.4598      2.00000
     13      -4.9313      2.00000
     14      -4.8472      2.00000
     15      -4.7692      2.00000
     16      -4.7365      2.00000
     17      -4.4928      2.00000
     18      -4.2596      2.00000
     19      -3.3997      2.00000
     20      -3.0778      2.00000
     21      -2.8102      2.00000
     22      -2.8023      2.00000
     23      -2.5649      2.00000
     24      -2.1938      2.00000
     25      -2.1432      2.00000
     26      -1.7031      2.00000
     27      -1.6135      2.00000
     28      -1.0449      2.00000
     29      -0.9400      2.00000
     30      -0.2989      2.00000
     31       1.1035      0.00000
     32       1.1980      0.00000
     33       1.4401      0.00000
     34       1.6580      0.00000
     35       1.9660      0.00000
     36       2.0751      0.00000
     37       2.3369      0.00000
     38       2.4229      0.00000
     39       2.5036      0.00000
     40       2.7400      0.00000

 k-point     5 :       0.5000    0.0000    0.0000
  band No.  band energies     occupation 
      1     -12.1731      2.00000
      2     -12.1731      2.00000
      3     -11.9964      2.00000
      4     -11.9964      2.00000
      5     -11.9444      2.00000
      6     -11.9444      2.00000
      7      -9.5299      2.00000
      8      -9.5299      2.00000
      9      -9.2121      2.00000
     10      -9.2121      2.00000
     11      -9.0459      2.00000
     12      -9.0459      2.00000
     13      -4.5512      2.00000
     14      -4.5512      2.00000
     15      -4.3537      2.00000
     16      -4.3537      2.00000
     17      -4.3035      2.00000
     18      -4.3035      2.00000
     19      -2.9436      2.00000
     20      -2.9436      2.00000
     21      -2.8947      2.00000
     22      -2.8947      2.00000
     23      -2.2614      2.00000
     24      -2.2614      2.00000
     25      -2.1131      2.00000
     26      -2.1131      2.00000
     27      -1.5320      2.00000
     28      -1.5320      2.00000
     29      -1.0146      2.00000
     30      -1.0146      2.00000
     31       1.1875      0.00000
     32       1.1875      0.00000
     33       1.6077      0.00000
     34       1.6077      0.00000
     35       1.9630      0.00000
     36       1.9630      0.00000
     37       2.0065      0.00000
     38       2.0066      0.00000
     39       2.0845      0.00000
     40       2.0845      0.00000

 k-point     6 :       0.0000    0.0000    0.1667
  band No.  band energies     occupation 
      1     -14.7919      2.00000
      2     -14.6127      2.00000
      3     -14.5584      2.00000
      4     -12.5575      2.00000
      5     -12.3022      2.00000
      6     -12.2065      2.00000
      7      -8.9238      2.00000
      8      -8.7870      2.00000
      9      -8.7580      2.00000
     10      -6.3797      2.00000
     11      -6.1455      2.00000
     12      -6.0993      2.00000
     13      -4.6155      2.00000
     14      -4.4758      2.00000
     15      -3.9215      2.00000
     16      -3.7324      2.00000
     17      -3.3629      2.00000
     18      -3.3515      2.00000
     19      -3.3469      2.00000
     20      -3.2047      2.00000
     21      -3.1711      2.00000
     22      -1.8798      2.00000
     23      -1.6938      2.00000
     24      -1.6540      2.00000
     25      -1.3786      2.00000
     26      -0.9999      2.00000
     27      -0.9009      2.00000
     28      -0.6259      2.00000
     29      -0.4785      2.00000
     30       0.1259      2.00000
     31       1.6486      0.00000
     32       1.7316      0.00000
     33       1.8325      0.00000
     34       1.9339      0.00000
     35       2.2113      0.00000
     36       2.3849      0.00000
     37       2.4318      0.00000
     38       2.5822      0.00000
     39       2.6068      0.00000
     40       3.3757      0.00000

 k-point     7 :       0.1250    0.0000    0.1667
  band No.  band energies     occupation 
      1     -14.6112      2.00000
      2     -14.4323      2.00000
      3     -14.3782      2.00000
      4     -12.3738      2.00000
      5     -12.1201      2.00000
      6     -12.0265      2.00000
      7      -8.9877      2.00000
      8      -8.8546      2.00000
      9      -8.8316      2.00000
     10      -6.3428      2.00000
     11      -6.0488      2.00000
     12      -6.0437      2.00000
     13      -4.7617      2.00000
     14      -4.7464      2.00000
     15      -4.4465      2.00000
     16      -4.3392      2.00000
     17      -4.1412      2.00000
     18      -3.9156      2.00000
     19      -3.2337      2.00000
     20      -3.0662      2.00000
     21      -2.9578      2.00000
     22      -2.6781      2.00000
     23      -2.6000      2.00000
     24      -2.5946      2.00000
     25      -1.3685      2.00000
     26      -1.0594      2.00000
     27      -0.9075      2.00000
     28      -0.6080      2.00000
     29      -0.4677      2.00000
     30       0.1967      2.00000
     31       1.7712      0.00000
     32       2.1781      0.00000
     33       2.3867      0.00000
     34       2.6216      0.00000
     35       2.7503      0.00000
     36       2.8064      0.00000
     37       2.9731      0.00000
     38       3.1369      0.00000
     39       3.1782      0.00000
     40       3.7963      0.00000

 k-point     8 :       0.2500    0.0000    0.1667
  band No.  band energies     occupation 
      1     -14.0753      2.00000
      2     -13.8971      2.00000
      3     -13.8438      2.00000
      4     -11.8343      2.00000
      5     -11.5897      2.00000
      6     -11.5085      2.00000
      7      -9.4308      2.00000
      8      -9.3034      2.00000
      9      -9.2896      2.00000
     10      -6.6980      2.00000
     11      -6.3527      2.00000
     12      -6.1836      2.00000
     13      -5.5653      2.00000
     14      -5.4731      2.00000
     15      -5.3450      2.00000
     16      -4.9904      2.00000
     17      -4.6590      2.00000
     18      -4.6063      2.00000
     19      -3.2945      2.00000
     20      -3.2695      2.00000
     21      -3.0061      2.00000
     22      -2.9058      2.00000
     23      -2.6897      2.00000
     24      -2.6164      2.00000
     25      -1.6094      2.00000
     26      -1.4490      2.00000
     27      -1.2819      2.00000
     28      -0.8995      2.00000
     29      -0.5453      2.00000
     30       0.1269      2.00000
     31       1.7660      0.00000
     32       1.8421      0.00000
     33       2.1011      0.00000
     34       2.2241      0.00000
     35       2.5816      0.00000
     36       2.5909      0.00000
     37       2.6883      0.00000
     38       2.9088      0.00000
     39       3.1175      0.00000
     40       4.0501      0.00000

 k-point     9 :       0.3750    0.0000    0.1667
  band No.  band energies     occupation 
      1     -13.2077      2.00000
      2     -13.0308      2.00000
      3     -12.9789      2.00000
      4     -11.1373      2.00000
      5     -11.0010      2.00000
      6     -10.9802      2.00000
      7     -10.2872      2.00000
      8     -10.1107      2.00000
      9     -10.0362      2.00000
     10      -8.0699      2.00000
     11      -7.7671      2.00000
     12      -7.6201      2.00000
     13      -5.4838      2.00000
     14      -5.3661      2.00000
     15      -5.2754      2.00000
     16      -4.7044      2.00000
     17      -4.4538      2.00000
     18      -4.4486      2.00000
     19      -3.4187      2.00000
     20      -3.2153      2.00000
     21      -2.9750      2.00000
     22      -2.9441      2.00000
     23      -2.7844      2.00000
     24      -2.5761      2.00000
     25      -2.2235      2.00000
     26      -1.7657      2.00000
     27      -1.4803      2.00000
     28      -1.0941      2.00000
     29      -0.7869      2.00000
     30      -0.2180      2.00000
     31       1.4790      0.00000
     32       1.6890      0.00000
     33       1.9470      0.00000
     34       2.0463      0.00000
     35       2.1379      0.00000
     36       2.4100      0.00000
     37       2.5591      0.00000
     38       2.5683      0.00000
     39       2.8974      0.00000
     40       3.0000      0.00000

 k-point    10 :       0.5000    0.0000    0.1667
  band No.  band energies     occupation 
      1     -12.0764      2.00000
      2     -12.0764      2.00000
      3     -11.9016      2.00000
      4     -11.9016      2.00000
      5     -11.8518      2.00000
      6     -11.8518      2.00000
      7      -9.5416      2.00000
      8      -9.5416      2.00000
      9      -9.2525      2.00000
     10      -9.2525      2.00000
     11      -9.1190      2.00000
     12      -9.1190      2.00000
     13      -4.8880      2.00000
     14      -4.8880      2.00000
     15      -4.6410      2.00000
     16      -4.6410      2.00000
     17      -4.5271      2.00000
     18      -4.5271      2.00000
     19      -3.6050      2.00000
     20      -3.6050      2.00000
     21      -3.2046      2.00000
     22      -3.2046      2.00000
     23      -2.7750      2.00000
     24      -2.7750      2.00000
     25      -1.9618      2.00000
     26      -1.9618      2.00000
     27      -1.2504      2.00000
     28      -1.2504      2.00000
     29      -0.5519      2.00000
     30      -0.5519      2.00000
     31       1.2380      0.00000
     32       1.2380      0.00000
     33       1.6665      0.00000
     34       1.6665      0.00000
     35       1.8549      0.00000
     36       1.8549      0.00000
     37       2.9929      0.00000
     38       2.9929      0.00000
     39       3.3400      0.00000
     40       3.3407      0.00000

 k-point    11 :       0.0000    0.0000    0.3333
  band No.  band energies     occupation 
      1     -14.3374      2.00000
      2     -14.1681      2.00000
      3     -14.1246      2.00000
      4     -12.9364      2.00000
      5     -12.7812      2.00000
      6     -12.7795      2.00000
      7      -9.1317      2.00000
      8      -8.8467      2.00000
      9      -8.6638      2.00000
     10      -7.6880      2.00000
     11      -7.2831      2.00000
     12      -7.0211      2.00000
     13      -4.5240      2.00000
     14      -3.7971      2.00000
     15      -3.0139      2.00000
     16      -3.0070      2.00000
     17      -2.8665      2.00000
     18      -2.8436      2.00000
     19      -2.7085      2.00000
     20      -2.3639      2.00000
     21      -2.1472      2.00000
     22      -2.0986      2.00000
     23      -1.9681      2.00000
     24      -1.9490      2.00000
     25      -1.9443      2.00000
     26      -1.5998      2.00000
     27      -0.8746      2.00000
     28       0.0214      2.00000
     29       0.1182      2.00000
     30       0.1971      2.00000
     31       1.7388      0.00000
     32       1.8879      0.00000
     33       1.9692      0.00000
     34       2.0617      0.00000
     35       2.2226      0.00000
     36       2.2461      0.00000
     37       2.7871      0.00000
     38       3.1088      0.00000
     39       3.2646      0.00000
     40       3.2913      0.00000

 k-point    12 :       0.1250    0.0000    0.3333
  band No.  band energies     occupation 
      1     -14.1602      2.00000
      2     -13.9910      2.00000
      3     -13.9475      2.00000
      4     -12.7629      2.00000
      5     -12.6089      2.00000
      6     -12.6081      2.00000
      7      -9.0842      2.00000
      8      -8.8081      2.00000
      9      -8.6392      2.00000
     10      -7.6086      2.00000
     11      -7.2099      2.00000
     12      -6.9538      2.00000
     13      -4.5145      2.00000
     14      -4.4045      2.00000
     15      -4.1991      2.00000
     16      -4.1135      2.00000
     17      -3.6203      2.00000
     18      -3.3478      2.00000
     19      -3.1225      2.00000
     20      -3.0921      2.00000
     21      -2.8163      2.00000
     22      -2.5879      2.00000
     23      -1.9129      2.00000
     24      -1.8891      2.00000
     25      -1.4402      2.00000
     26      -1.3031      2.00000
     27      -0.7744      2.00000
     28      -0.3816      2.00000
     29      -0.3058      2.00000
     30      -0.2515      2.00000
     31       2.4339      0.00000
     32       2.7642      0.00000
     33       2.8519      0.00000
     34       2.9987      0.00000
     35       3.0325      0.00000
     36       3.2745      0.00000
     37       3.2763      0.00000
     38       3.3047      0.00000
     39       3.4103      0.00000
     40       3.4173      0.00000

 k-point    13 :       0.2500    0.0000    0.3333
  band No.  band energies     occupation 
      1     -13.6379      2.00000
      2     -13.4689      2.00000
      3     -13.4257      2.00000
      4     -12.2648      2.00000
      5     -12.1175      2.00000
      6     -12.1150      2.00000
      7      -9.1472      2.00000
      8      -8.9159      2.00000
      9      -8.8102      2.00000
     10      -7.6057      2.00000
     11      -7.2572      2.00000
     12      -7.0608      2.00000
     13      -5.7244      2.00000
     14      -5.5968      2.00000
     15      -5.5212      2.00000
     16      -4.8816      2.00000
     17      -4.7585      2.00000
     18      -4.7137      2.00000
     19      -3.7858      2.00000
     20      -3.2968      2.00000
     21      -2.9821      2.00000
     22      -2.5377      2.00000
     23      -2.1969      2.00000
     24      -2.1541      2.00000
     25      -1.4754      2.00000
     26      -1.3851      2.00000
     27      -1.2640      2.00000
     28      -1.0959      2.00000
     29      -0.9052      2.00000
     30      -0.4162      2.00000
     31       2.1205      0.00000
     32       2.4069      0.00000
     33       2.5458      0.00000
     34       2.7825      0.00000
     35       2.9694      0.00000
     36       3.0341      0.00000
     37       3.4674      0.00000
     38       3.6185      0.00000
     39       3.6769      0.00000
     40       4.2832      0.00000

 k-point    14 :       0.3750    0.0000    0.3333
  band No.  band energies     occupation 
      1     -12.8113      2.00000
      2     -12.6424      2.00000
      3     -12.5990      2.00000
      4     -11.6199      2.00000
      5     -11.4737      2.00000
      6     -11.4731      2.00000
      7      -9.7305      2.00000
      8      -9.5399      2.00000
      9      -9.4898      2.00000
     10      -8.4358      2.00000
[...]
     34       2.6454      0.00000
     35       2.9345      0.00000
     36       3.0799      0.00000
     37       3.5978      0.00000
     38       3.7376      0.00000
     39       3.9347      0.00000
     40       4.0224      0.00000

 k-point    15 :       0.5000    0.0000    0.3333
  band No.  band energies     occupation 
      1     -11.8499      2.00000
      2     -11.8499      2.00000
      3     -11.6807      2.00000
      4     -11.6807      2.00000
      5     -11.6368      2.00000
      6     -11.6368      2.00000
      7      -9.6140      2.00000
      8      -9.6140      2.00000
      9      -9.3910      2.00000
     10      -9.3910      2.00000
     11      -9.3275      2.00000
     12      -9.3275      2.00000
     13      -5.2469      2.00000
     14      -5.2469      2.00000
     15      -4.9449      2.00000
     16      -4.9449      2.00000
     17      -4.7492      2.00000
     18      -4.7492      2.00000
     19      -4.3688      2.00000
     20      -4.3688      2.00000
     21      -4.0025      2.00000
     22      -4.0025      2.00000
     23      -3.6669      2.00000
     24      -3.6669      2.00000
     25      -1.9971      2.00000
     26      -1.9971      2.00000
     27      -1.1612      2.00000
     28      -1.1612      2.00000
     29      -0.3213      2.00000
     30      -0.3213      2.00000
     31       2.3273      0.00000
     32       2.3273      0.00000
     33       2.5544      0.00000
     34       2.5544      0.00000
     35       3.0019      0.00000
     36       3.0019      0.00000
     37       3.3100      0.00000
     38       3.3100      0.00000
     39       3.5797      0.00000
     40       3.5797      0.00000

 k-point    16 :       0.0000    0.0000    0.5000
  band No.  band energies     occupation 
      1     -13.6524      2.00000
      2     -13.6524      2.00000
      3     -13.5499      2.00000
      4     -13.5499      2.00000
      5     -13.4294      2.00000
      6     -13.4294      2.00000
      7      -8.6894      2.00000
      8      -8.6894      2.00000
      9      -8.2976      2.00000
     10      -8.2976      2.00000
     11      -8.0212      2.00000
     12      -8.0212      2.00000
     13      -3.7739      2.00000
     14      -3.7739      2.00000
     15      -2.9078      2.00000
     16      -2.9078      2.00000
     17      -2.5308      2.00000
     18      -2.5308      2.00000
     19      -2.4561      2.00000
     20      -2.4561      2.00000
     21      -2.3229      2.00000
     22      -2.3229      2.00000
     23      -2.0677      2.00000
     24      -2.0677      2.00000
     25      -0.7088      2.00000
     26      -0.7088      2.00000
     27      -0.5792      2.00000
     28      -0.5792      2.00000
     29      -0.5302      2.00000
     30      -0.5302      2.00000
     31       1.9183      0.00000
     32       1.9183      0.00000
     33       2.2360      0.00000
     34       2.2360      0.00000
     35       2.4064      0.00000
     36       2.4064      0.00000
     37       3.3305      0.00000
     38       3.3305      0.00000
     39       3.5513      0.00000
     40       3.5582      0.00000

 k-point    17 :       0.1250    0.0000    0.5000
  band No.  band energies     occupation 
      1     -13.4799      2.00000
      2     -13.4799      2.00000
      3     -13.3765      2.00000
      4     -13.3765      2.00000
      5     -13.2571      2.00000
      6     -13.2571      2.00000
      7      -8.6024      2.00000
      8      -8.6024      2.00000
      9      -8.2199      2.00000
     10      -8.2199      2.00000
     11      -7.9565      2.00000
     12      -7.9565      2.00000
     13      -3.8491      2.00000
     14      -3.8491      2.00000
     15      -3.7903      2.00000
     16      -3.7903      2.00000
     17      -3.6944      2.00000
     18      -3.6944      2.00000
     19      -3.5107      2.00000
     20      -3.5107      2.00000
     21      -2.7764      2.00000
     22      -2.7764      2.00000
     23      -2.0332      2.00000
     24      -2.0332      2.00000
     25      -0.6081      2.00000
     26      -0.6081      2.00000
     27      -0.4388      2.00000
     28      -0.4388      2.00000
     29      -0.4114      2.00000
     30      -0.4114      2.00000
     31       2.6316      0.00000
     32       2.6316      0.00000
     33       2.8257      0.00000
     34       2.8257      0.00000
     35       2.9049      0.00000
     36       2.9049      0.00000
     37       3.1526      0.00000
     38       3.1526      0.00000
     39       3.7900      0.00000
     40       3.7900      0.00000

 k-point    18 :       0.2500    0.0000    0.5000
  band No.  band energies     occupation 
      1     -12.9786      2.00000
      2     -12.9786      2.00000
      3     -12.8711      2.00000
      4     -12.8711      2.00000
      5     -12.7563      2.00000
      6     -12.7563      2.00000
      7      -8.5215      2.00000
      8      -8.5215      2.00000
      9      -8.1979      2.00000
     10      -8.1979      2.00000
     11      -8.0118      2.00000
     12      -8.0118      2.00000
     13      -5.3907      2.00000
     14      -5.3907      2.00000
     15      -5.2606      2.00000
     16      -5.2606      2.00000
     17      -5.1552      2.00000
     18      -5.1552      2.00000
     19      -3.3517      2.00000
     20      -3.3517      2.00000
     21      -2.7452      2.00000
     22      -2.7452      2.00000
     23      -2.4605      2.00000
     24      -2.4605      2.00000
     25      -1.2861      2.00000
     26      -1.2861      2.00000
     27      -1.1819      2.00000
     28      -1.1819      2.00000
     29      -0.7653      2.00000
     30      -0.7653      2.00000
     31       2.8658      0.00000
     32       2.8658      0.00000
     33       3.2893      0.00000
     34       3.2893      0.00000
     35       3.4102      0.00000
     36       3.4102      0.00000
     37       3.8615      0.00000
     38       3.8617      0.00000
     39       3.9734      0.00000
     40       3.9754      0.00000

 k-point    19 :       0.3750    0.0000    0.5000
  band No.  band energies     occupation 
      1     -12.2337      2.00000
      2     -12.2337      2.00000
      3     -12.1112      2.00000
      4     -12.1112      2.00000
      5     -12.0136      2.00000
      6     -12.0136      2.00000
      7      -9.0620      2.00000
      8      -9.0620      2.00000
      9      -8.8667      2.00000
     10      -8.8667      2.00000
     11      -8.7852      2.00000
     12      -8.7852      2.00000
     13      -5.7799      2.00000
     14      -5.7799      2.00000
     15      -5.5195      2.00000
     16      -5.5195      2.00000
     17      -5.3357      2.00000
     18      -5.3357      2.00000
     19      -3.7577      2.00000
     20      -3.7577      2.00000
     21      -3.5336      2.00000
     22      -3.5336      2.00000
     23      -3.4166      2.00000
     24      -3.4166      2.00000
     25      -2.0371      2.00000
     26      -2.0371      2.00000
     27      -1.3006      2.00000
     28      -1.3006      2.00000
     29      -0.4772      2.00000
     30      -0.4772      2.00000
     31       2.6753      0.00000
     32       2.6753      0.00000
     33       3.0593      0.00000
     34       3.0593      0.00000
     35       3.1753      0.00000
     36       3.1753      0.00000
     37       4.1626      0.00000
     38       4.1631      0.00000
     39       4.2143      0.00000
     40       4.2304      0.00000

 k-point    20 :       0.5000    0.0000    0.5000
  band No.  band energies     occupation 
      1     -11.7119      2.00000
      2     -11.7119      2.00000
      3     -11.5469      2.00000
      4     -11.5469      2.00000
      5     -11.5075      2.00000
      6     -11.5075      2.00000
      7      -9.6875      2.00000
      8      -9.6875      2.00000
      9      -9.4993      2.00000
     10      -9.4993      2.00000
     11      -9.4695      2.00000
     12      -9.4695      2.00000
     13      -5.1099      2.00000
     14      -5.1099      2.00000
     15      -5.0234      2.00000
     16      -5.0234      2.00000
     17      -4.6994      2.00000
     18      -4.6994      2.00000
     19      -4.6820      2.00000
     20      -4.6820      2.00000
     21      -4.4775      2.00000
     22      -4.4775      2.00000
     23      -4.3636      2.00000
     24      -4.3636      2.00000
     25      -2.0072      2.00000
     26      -2.0072      2.00000
     27      -1.1170      2.00000
     28      -1.1170      2.00000
     29      -0.2430      2.00000
     30      -0.2430      2.00000
     31       2.1431      0.00000
     32       2.1431      0.00000
     33       2.7110      0.00000
     34       2.7110      0.00000
     35       2.9910      0.00000
     36       2.9910      0.00000
     37       4.6850      0.00000
     38       4.6904      0.00000
     39       4.8372      0.00000
     40       4.8500      0.00000


--------------------------------------------------------------------------------------------------------


 soft charge-density along one line, spin component           1
         0         1         2         3         4         5         6         7         8         9
 total charge-density along one line
 
 pseudopotential strength for first ion, spin component:           1
 29.683  37.028   0.035  -0.033   0.000   0.054  -0.051   0.000
 37.028  46.195   0.043  -0.041   0.000   0.067  -0.063   0.000
  0.035   0.043   6.553   0.006  -0.000  10.134   0.009  -0.000
 -0.033  -0.041   0.006   6.557   0.000   0.009  10.140   0.000
  0.000   0.000  -0.000   0.000   6.561  -0.000   0.000  10.147
  0.054   0.067  10.134   0.009  -0.000  15.691   0.014  -0.000
 -0.051  -0.063   0.009  10.140   0.000   0.014  15.700   0.000
  0.000   0.000  -0.000   0.000  10.147  -0.000   0.000  15.710
 total augmentation occupancy for first ion, spin component:           1
  8.305  -4.740   1.848  -1.942  -0.000  -0.602   0.648   0.000
 -4.740   3.448  -1.583   1.649  -0.000   0.446  -0.475   0.000
  1.848  -1.583   3.132   0.201   0.000  -0.826  -0.162   0.000
 -1.942   1.649   0.201   3.278   0.000  -0.161  -0.927   0.000
  0.000  -0.000   0.000   0.000   3.403   0.000  -0.000  -1.029
 -0.602   0.446  -0.826  -0.161   0.000   0.262   0.070   0.000
  0.648  -0.475  -0.162  -0.927   0.000   0.070   0.300  -0.000
  0.000   0.000   0.000  -0.000  -1.029   0.000  -0.000   0.341


------------------------ aborting loop because EDIFF is reached ----------------------------------------


 


 total charge     
 
# of ion       s       p       d       tot
------------------------------------------
    1        1.083   1.375   0.000   2.458
    2        1.083   1.375   0.000   2.458
    3        1.087   1.370   0.000   2.456
    4        1.087   1.370   0.000   2.456
    5        1.088   1.369   0.000   2.456
    6        1.088   1.369   0.000   2.456
    7        1.088   1.369   0.000   2.456
    8        1.088   1.369   0.000   2.456
    9        1.087   1.370   0.000   2.456
   10        1.087   1.370   0.000   2.456
   11        1.083   1.375   0.000   2.458
   12        1.083   1.375   0.000   2.458
--------------------------------------------------
tot         13.028  16.454   0.000  29.482
 
    CHARGE:  cpu time    0.0579: real time    0.0579
    FORLOC:  cpu time    0.0015: real time    0.0015
    FORNL :  cpu time    0.2062: real time    0.2064
    STRESS:  cpu time    0.3129: real time    0.3129
    FORCOR:  cpu time    0.0199: real time    0.0199
    FORHAR:  cpu time    0.0056: real time    0.0056
    MIXING:  cpu time    0.0010: real time    0.0010
    OFIELD:  cpu time    0.0000: real time    0.0000

  DFT-D2 method for vdW energy calculation
  -------------------------------------------------------------------

  Parameters of vdW forcefield:
         C6(Jnm^6/mol)     R0(A)
   -----------------------------
   P        7.840          1.705

  IVDW =  10
  VDW_RADIUS =    50.000 A
  VDW_S6 =     0.750
  VDW_SR =     1.000
  VDW_D =    20.000
  LVDW_EWALD = F

  Number of pair interactions contributing to vdW energy:   88298
  Edisp (eV):   -2.09049
    FORVDW:  cpu time    0.0523: real time    0.0923

  FORCE on cell =-STRESS in cart. coord.  units (eV):
  Direction    XX          YY          ZZ          XY          YZ          ZX
  --------------------------------------------------------------------------------------
  Alpha Z    30.28014    30.28014    30.28014
  Ewald   16581.80831-18028.74426 16422.30473    -0.00000     0.00000     0.00000
  Hartree 16891.57525-16761.50969 16836.51258    -0.00000    -0.00000    -0.00000
  E(xc)    -201.70765  -202.62480  -201.83808     0.00000    -0.00000    -0.00000
  Local  -34426.48987 33797.83205-34232.81056    -0.00000    -0.00000    -0.00000
  n-local   681.41044   676.75717   676.20629     0.00000     0.00000     1.78484
  augment  -126.63671  -130.61652  -129.15392    -0.00000     0.00000     0.00000
  Kinetic   568.43855   624.71584   599.47179    -0.00000     0.00000     7.87997
  Fock        0.00000     0.00000     0.00000     0.00000     0.00000     0.00000
  vdW        -0.40633    -1.21184    -1.04267    -0.00000    -0.00000     0.00000
  -------------------------------------------------------------------------------------
  Total      -1.72786     4.87810    -0.06971     0.00000    -0.00000     0.00000
  in kB      -5.80613    16.39187    -0.23424     0.00000    -0.00000     0.00000
  external pressure =        3.45 kB  Pullay stress =        0.00 kB


 VOLUME and BASIS-vectors are now :
 -----------------------------------------------------------------------------
  energy-cutoff  :      450.00
  volume of cell :      476.80
      direct lattice vectors                 reciprocal lattice vectors
     3.342886000  0.000000000  0.000000000     0.299142717  0.000000000  0.000000000
     0.000000000 32.602409000  0.000000000     0.000000000  0.030672580  0.000000000
     0.000000000  0.000000000  4.374831000     0.000000000  0.000000000  0.228580258

  length of vectors
     3.342886000 32.602409000  4.374831000     0.299142717  0.030672580  0.228580258


 FORCES acting on ions
    electron-ion (+dipol)            ewald-force                    non-local-force                 convergence-correction
 -----------------------------------------------------------------------------------------------
   0.138E-14 0.823E+03 -.291E+02   0.142E-14 -.828E+03 0.342E+02   0.000E+00 0.548E+01 -.522E+01   0.145E-14 -.119E-03 -.252E-04
   -.134E-13 0.823E+03 0.291E+02   -.514E-14 -.828E+03 -.342E+02   -.278E-16 0.548E+01 0.522E+01   0.166E-14 -.119E-03 0.252E-04
   0.139E-14 0.460E+03 0.252E+02   0.287E-14 -.455E+03 -.308E+02   -.278E-16 -.512E+01 0.553E+01   0.188E-14 0.544E-04 -.431E-04
   -.144E-13 0.460E+03 -.252E+02   -.708E-14 -.455E+03 0.308E+02   0.000E+00 -.512E+01 -.553E+01   0.103E-14 0.544E-04 0.431E-04
   0.807E-15 0.183E+03 -.254E+02   0.791E-15 -.187E+03 0.310E+02   0.000E+00 0.483E+01 -.554E+01   0.226E-14 -.270E-03 -.499E-04
   -.126E-13 0.183E+03 0.254E+02   -.517E-14 -.187E+03 -.310E+02   0.000E+00 0.483E+01 0.554E+01   0.138E-14 -.270E-03 0.499E-04
   0.889E-15 -.183E+03 0.254E+02   0.193E-14 0.187E+03 -.310E+02   0.000E+00 -.483E+01 0.554E+01   0.227E-15 0.270E-03 0.499E-04
   -.141E-13 -.183E+03 -.254E+02   -.620E-14 0.187E+03 0.310E+02   0.000E+00 -.483E+01 -.554E+01   0.176E-14 0.270E-03 -.499E-04
   -.100E-14 -.460E+03 -.252E+02   -.148E-15 0.455E+03 0.308E+02   0.278E-16 0.512E+01 -.553E+01   0.118E-14 -.544E-04 0.431E-04
   -.141E-13 -.460E+03 0.252E+02   -.428E-14 0.455E+03 -.308E+02   0.000E+00 0.512E+01 0.553E+01   0.185E-14 -.544E-04 -.431E-04
   -.910E-16 -.823E+03 0.291E+02   0.131E-14 0.828E+03 -.342E+02   0.000E+00 -.548E+01 0.522E+01   0.107E-14 0.119E-03 0.252E-04
   -.119E-13 -.823E+03 -.291E+02   -.623E-14 0.828E+03 0.342E+02   0.278E-16 -.548E+01 -.522E+01   0.451E-15 0.119E-03 -.252E-04
 -----------------------------------------------------------------------------------------------
   -.771E-13 0.321E-11 0.431E-10   -.259E-13 0.682E-12 0.000E+00   0.000E+00 0.178E-14 -.178E-14   0.162E-13 -.357E-11 -.280E-13
 
 
 POSITION                                       TOTAL-FORCE (eV/Angst)
 -----------------------------------------------------------------------------------
      0.00000     10.00001      4.02014         0.000000     -0.119035     -0.145814
      1.67144     10.00001      2.54211         0.000000     -0.119035      0.145814
      0.00000     12.14332      0.35469         0.000000     -0.095117     -0.096093
      1.67144     12.14332      1.83272         0.000000     -0.095117      0.096093
      0.00000     15.22953      4.02014         0.000000     -0.079797      0.007029
      1.67144     15.22953      2.54211         0.000000     -0.079797     -0.007029
      0.00000     17.37288      0.35469         0.000000      0.079797     -0.007029
      1.67144     17.37288      1.83272         0.000000      0.079797      0.007029
      0.00000     20.45909      4.02014         0.000000      0.095117      0.096093
      1.67144     20.45909      2.54211        -0.000000      0.095117     -0.096093
      0.00000     22.60240      0.35469         0.000000      0.119035      0.145814
      1.67144     22.60240      1.83272         0.000000      0.119035     -0.145814
 -----------------------------------------------------------------------------------
    total drift:                               -0.000000      0.000000      0.000000


--------------------------------------------------------------------------------------------------------



  FREE ENERGIE OF THE ION-ELECTRON SYSTEM (eV)
  ---------------------------------------------------
  free  energy   TOTEN  =       -66.18564535 eV

  energy  without entropy=      -66.18540126  energy(sigma->0) =      -66.18552331
 


--------------------------------------------------------------------------------------------------------


    POTLOK:  cpu time    0.0864: real time    0.0864


--------------------------------------------------------------------------------------------------------


 writing wavefunctions
     LOOP+:  cpu time   23.2469: real time   23.3548
    4ORBIT:  cpu time    0.0000: real time    0.0000
 


 total charge     
 
# of ion       s       p       d       tot
------------------------------------------
    1        1.083   1.375   0.000   2.458
    2        1.083   1.375   0.000   2.458
    3        1.087   1.370   0.000   2.456
    4        1.087   1.370   0.000   2.456
    5        1.088   1.369   0.000   2.456
    6        1.088   1.369   0.000   2.456
    7        1.088   1.369   0.000   2.456
    8        1.088   1.369   0.000   2.456
    9        1.087   1.370   0.000   2.456
   10        1.087   1.370   0.000   2.456
   11        1.083   1.375   0.000   2.458
   12        1.083   1.375   0.000   2.458
--------------------------------------------------
tot         13.028  16.454   0.000  29.482
 

 total amount of memory used by VASP MPI-rank0    39848. kBytes
=======================================================================

   base      :      30000. kBytes
   nonl-proj :       1919. kBytes
   fftplans  :       1467. kBytes
   grid      :       2232. kBytes
   one-center:          6. kBytes
   wavefun   :       4224. kBytes
 
  
  
 General timing and accounting informations for this job:
 ========================================================
  
                  Total CPU time used (sec):       29.977
                            User time (sec):       26.845
                          System time (sec):        3.132
                         Elapsed time (sec):       30.733
  
                   Maximum memory used (kb):      113384.
                   Average memory used (kb):           0.
  
                          Minor page faults:        44208
                          Major page faults:            0
                 Voluntary context switches:         2933
