PROCAR lm decomposed
# of k-points:   12         # of bands:   40         # of ions:   12

 k-point     1 :    0.00000000 0.00000000 0.00000000     weight = 0.04166667

band     1 # energy  -14.85704100 # occ.  2.00000000
 
ion      s     py     pz     px    dxy    dyz    dz2    dxz  x2-y2    tot
    1  0.017  0.001  0.000  0.000  0.000  0.000  0.000  0.000  0.000  0.018
    2  0.017  0.001  0.000  0.000  0.000  0.000  0.000  0.000  0.000  0.018
    3  0.023  0.000  0.000  0.000  0.000  0.000  0.000  0.000  0.000  0.024
    4  0.023  0.000  0.000  0.000  0.000  0.000  0.000  0.000  0.000  0.024
    5  0.081  0.002  0.001  0.000  0.000  0.000  0.000  0.000  0.000  0.085
    6  0.081  0.002  0.001  0.000  0.000  0.000  0.000  0.000  0.000  0.085
    7  0.081  0.002  0.001  0.000  0.000  0.000  0.000  0.000  0.000  0.085
    8  0.081  0.002  0.001  0.000  0.000  0.000  0.000  0.000  0.000  0.085
    9  0.023  0.000  0.000  0.000  0.000  0.000  0.000  0.000  0.000  0.024
   10  0.023  0.000  0.000  0.000  0.000  0.000  0.000  0.000  0.000  0.024
   11  0.017  0.001  0.000  0.000  0.000  0.000  0.000  0.000  0.000  0.018
   12  0.017  0.001  0.000  0.000  0.000  0.000  0.000  0.000  0.000  0.018
tot    0.488  0.014  0.008  0.000  0.000  0.000  0.000  0.000  0.000  0.510
 
band     2 # energy  -14.73682181 # occ.  2.00000000
 
ion      s     py     pz     px    dxy    dyz    dz2    dxz  x2-y2    tot
    1  0.059  0.002  0.001  0.000  0.000  0.000  0.000  0.000  0.000  0.062
    2  0.059  0.002  0.001  0.000  0.000  0.000  0.000  0.000  0.000  0.062
    3  0.063  0.002  0.001  0.000  0.000  0.000  0.000  0.000  0.000  0.066
    4  0.063  0.002  0.001  0.000  0.000  0.000  0.000  0.000  0.000  0.066
    5  0.000  0.000  0.000  0.000  0.000  0.000  0.000  0.000  0.000  0.000
    6  0.000  0.000  0.000  0.000  0.000  0.000  0.000  0.000  0.000  0.000
    7  0.000  0.000  0.000  0.000  0.000  0.000  0.000  0.000  0.000  0.000
    8  0.000  0.000  0.000  0.000  0.000  0.000  0.000  0.000  0.000  0.000
    9  0.063  0.002  0.001  0.000  0.000  0.000  0.000  0.000  0.000  0.066
   10  0.063  0.002  0.001  0.000  0.000  0.000  0.000  0.000  0.000  0.066
   11  0.059  0.002  0.001  0.000  0.000  0.000  0.000  0.000  0.000  0.062
   12  0.059  0.002  0.001  0.000  0.000  0.000  0.000  0.000  0.000  0.062
tot    0.490  0.017  0.008  0.000  0.000  0.000  0.000  0.000  0.000  0.515
 
band     3 # energy  -14.66819053 # occ.  2.00000000
 
ion      s     py     pz     px    dxy    dyz    dz2    dxz  x2-y2    tot
    1  0.043  0.001  0.001  0.000  0.000  0.000  0.000  0.000  0.000  0.045
    2  0.043  0.001  0.001  0.000  0.000  0.000  0.000  0.000  0.000  0.045
    3  0.039  0.002  0.001  0.000  0.000  0.000  0.000  0.000  0.000  0.041
    4  0.039  0.002  0.001  0.000  0.000  0.000  0.000  0.000  0.000  0.041
    5  0.041  0.002  0.001  0.000  0.000  0.000  0.000  0.000  0.000  0.043
    6  0.041  0.002  0.001  0.000  0.000  0.000  0.000  0.000  0.000  0.043
    7  0.041  0.002  0.001  0.000  0.000  0.000  0.000  0.000  0.000  0.043
    8  0.041  0.002  0.001  0.000  0.000  0.000  0.000  0.000  0.000  0.043
    9  0.039  0.002  0.001  0.000  0.000  0.000  0.000  0.000  0.000  0.041
   10  0.039  0.002  0.001  0.000  0.000  0.000  0.000  0.000  0.000  0.041
   11  0.043  0.001  0.001  0.000  0.000  0.000  0.000  0.000  0.000  0.045
   12  0.043  0.001  0.001  0.000  0.000  0.000  0.000  0.000  0.000  0.045
tot    0.491  0.020  0.008  0.000  0.000  0.000  0.000  0.000  0.000  0.519
 
band     4 # energy  -12.37554056 # occ.  2.00000000
 
ion      s     py     pz     px    dxy    dyz    dz2    dxz  x2-y2    tot
    1  0.030  0.000  0.002  0.000  0.000  0.000  0.000  0.000  0.000  0.033
    2  0.030  0.000  0.002  0.000  0.000  0.000  0.000  0.000  0.000  0.033
    3  0.022  0.001  0.002  0.000  0.000  0.000  0.000  0.000  0.000  0.025
    4  0.022  0.001  0.002  0.000  0.000  0.000  0.000  0.000  0.000  0.025
    5  0.071  0.001  0.006  0.000  0.000  0.000  0.000  0.000  0.000  0.078
    6  0.071  0.001  0.006  0.000  0.000  0.000  0.000  0.000  0.000  0.078
    7  0.071  0.001  0.006  0.000  0.000  0.000  0.000  0.000  0.000  0.078
    8  0.071  0.001  0.006  0.000  0.000  0.000  0.000  0.000  0.000  0.078
    9  0.022  0.001  0.002  0.000  0.000  0.000  0.000  0.000  0.000  0.025
   10  0.022  0.001  0.002  0.000  0.000  0.000  0.000  0.000  0.000  0.025
   11  0.030  0.000  0.002  0.000  0.000  0.000  0.000  0.000  0.000  0.033
   12  0.030  0.000  0.002  0.000  0.000  0.000  0.000  0.000  0.000  0.033
tot    0.493  0.008  0.041  0.000  0.000  0.000  0.000  0.000  0.000  0.542
 
band     5 # energy  -12.12988140 # occ.  2.00000000
 
ion      s     py     pz     px    dxy    dyz    dz2    dxz  x2-y2    tot
    1  0.064  0.001  0.006  0.000  0.000  0.000  0.000  0.000  0.000  0.071
    2  0.064  0.001  0.006  0.000  0.000  0.000  0.000  0.000  0.000  0.071
    3  0.062  0.001  0.006  0.000  0.000  0.000  0.000  0.000  0.000  0.068
    4  0.062  0.001  0.006  0.000  0.000  0.000  0.000  0.000  0.000  0.068
    5  0.000  0.000  0.000  0.000  0.000  0.000  0.000  0.000  0.000  0.001
    6  0.000  0.000  0.000  0.000  0.000  0.000  0.000  0.000  0.000  0.001
    7  0.000  0.000  0.000  0.000  0.000  0.000  0.000  0.000  0.000  0.001
    8  0.000  0.000  0.000  0.000  0.000  0.000  0.000  0.000  0.000  0.001
    9  0.062  0.001  0.006  0.000  0.000  0.000  0.000  0.000  0.000  0.068
   10  0.062  0.001  0.006  0.000  0.000  0.000  0.000  0.000  0.000  0.068
   11  0.064  0.001  0.006  0.000  0.000  0.000  0.000  0.000  0.000  0.071
   12  0.064  0.001  0.006  0.000  0.000  0.000  0.000  0.000  0.000  0.071
tot    0.504  0.006  0.047  0.000  0.000  0.000  0.000  0.000  0.000  0.557
 
band     6 # energy  -11.95022205 # occ.  2.00000000
 
ion      s     py     pz     px    dxy    dyz    dz2    dxz  x2-y2    tot
    1  0.035  0.001  0.004  0.000  0.000  0.000  0.000  0.000  0.000  0.039
    2  0.035  0.001  0.004  0.000  0.000  0.000  0.000  0.000  0.000  0.039
    3  0.039  0.000  0.004  0.000  0.000  0.000  0.000  0.000  0.000  0.044
    4  0.039  0.000  0.004  0.000  0.000  0.000  0.000  0.000  0.000  0.044
    5  0.055  0.000  0.006  0.000  0.000  0.000  0.000  0.000  0.000  0.061
    6  0.055  0.000  0.006  0.000  0.000  0.000  0.000  0.000  0.000  0.061
    7  0.055  0.000  0.006  0.000  0.000  0.000  0.000  0.000  0.000  0.061
    8  0.055  0.000  0.006  0.000  0.000  0.000  0.000  0.000  0.000  0.061
    9  0.039  0.000  0.004  0.000  0.000  0.000  0.000  0.000  0.000  0.044
   10  0.039  0.000  0.004  0.000  0.000  0.000  0.000  0.000  0.000  0.044
   11  0.035  0.001  0.004  0.000  0.000  0.000  0.000  0.000  0.000  0.039
   12  0.035  0.001  0.004  0.000  0.000  0.000  0.000  0.000  0.000  0.039
tot    0.515  0.004  0.052  0.000  0.000  0.000  0.000  0.000  0.000  0.572
 
band     7 # energy   -8.60799427 # occ.  2.00000000
 
ion      s     py     pz     px    dxy    dyz    dz2    dxz  x2-y2    tot
    1  0.015  0.002  0.001  0.000  0.000  0.000  0.000  0.000  0.000  0.017
    2  0.015  0.002  0.001  0.000  0.000  0.000  0.000  0.000  0.000  0.017
    3  0.017  0.001  0.002  0.000  0.000  0.000  0.000  0.000  0.000  0.020
    4  0.017  0.001  0.002  0.000  0.000  0.000  0.000  0.000  0.000  0.020
    5  0.094  0.009  0.009  0.000  0.000  0.000  0.000  0.000  0.000  0.112
    6  0.094  0.009  0.009  0.000  0.000  0.000  0.000  0.000  0.000  0.112
    7  0.094  0.009  0.009  0.000  0.000  0.000  0.000  0.000  0.000  0.112
    8  0.094  0.009  0.009  0.000  0.000  0.000  0.000  0.000  0.000  0.112
    9  0.017  0.001  0.002  0.000  0.000  0.000  0.000  0.000  0.000  0.020
   10  0.017  0.001  0.002  0.000  0.000  0.000  0.000  0.000  0.000  0.020
   11  0.015  0.002  0.001  0.000  0.000  0.000  0.000  0.000  0.000  0.017
   12  0.015  0.002  0.001  0.000  0.000  0.000  0.000  0.000  0.000  0.017
tot    0.502  0.048  0.047  0.000  0.000  0.000  0.000  0.000  0.000  0.597
 
band     8 # energy   -8.52393082 # occ.  2.00000000
 
ion      s     py     pz     px    dxy    dyz    dz2    dxz  x2-y2    tot
    1  0.062  0.007  0.006  0.000  0.000  0.000  0.000  0.000  0.000  0.074
    2  0.062  0.007  0.006  0.000  0.000  0.000  0.000  0.000  0.000  0.074
    3  0.064  0.006  0.006  0.000  0.000  0.000  0.000  0.000  0.000  0.076
    4  0.064  0.006  0.006  0.000  0.000  0.000  0.000  0.000  0.000  0.076
    5  0.000  0.000  0.000  0.000  0.000  0.000  0.000  0.000  0.000  0.000
    6  0.000  0.000  0.000  0.000  0.000  0.000  0.000  0.000  0.000  0.000
    7  0.000  0.000  0.000  0.000  0.000  0.000  0.000  0.000  0.000  0.000
    8  0.000  0.000  0.000  0.000  0.000  0.000  0.000  0.000  0.000  0.000
    9  0.064  0.006  0.006  0.000  0.000  0.000  0.000  0.000  0.000  0.076
   10  0.064  0.006  0.006  0.000  0.000  0.000  0.000  0.000  0.000  0.076
   11  0.062  0.007  0.006  0.000  0.000  0.000  0.000  0.000  0.000  0.074
   12  0.062  0.007  0.006  0.000  0.000  0.000  0.000  0.000  0.000  0.074
tot    0.502  0.052  0.046  0.000  0.000  0.000  0.000  0.000  0.000  0.600
 
band     9 # energy   -8.49382232 # occ.  2.00000000
 
ion      s     py     pz     px    dxy    dyz    dz2    dxz  x2-y2    tot
    1  0.047  0.005  0.004  0.000  0.000  0.000  0.000  0.000  0.000  0.057
    2  0.047  0.005  0.004  0.000  0.000  0.000  0.000  0.000  0.000  0.057
    3  0.046  0.005  0.004  0.000  0.000  0.000  0.000  0.000  0.000  0.056
    4  0.046  0.005  0.004  0.000  0.000  0.000  0.000  0.000  0.000  0.056
    5  0.032  0.004  0.003  0.000  0.000  0.000  0.000  0.000  0.000  0.038
    6  0.032  0.004  0.003  0.000  0.000  0.000  0.000  0.000  0.000  0.038
    7  0.032  0.004  0.003  0.000  0.000  0.000  0.000  0.000  0.000  0.038
    8  0.032  0.004  0.003  0.000  0.000  0.000  0.000  0.000  0.000  0.038
    9  0.046  0.005  0.004  0.000  0.000  0.000  0.000  0.000  0.000  0.056
   10  0.046  0.005  0.004  0.000  0.000  0.000  0.000  0.000  0.000  0.056
   11  0.047  0.005  0.004  0.000  0.000  0.000  0.000  0.000  0.000  0.057
   12  0.047  0.005  0.004  0.000  0.000  0.000  0.000  0.000  0.000  0.057
tot    0.502  0.055  0.046  0.000  0.000  0.000  0.000  0.000  0.000  0.603
 
band    10 # energy   -5.92528623 # occ.  2.00000000
 
ion      s     py     pz     px    dxy    dyz    dz2    dxz  x2-y2    tot
    1  0.001  0.011  0.007  0.000  0.000  0.000  0.000  0.000  0.000  0.019
    2  0.001  0.011  0.007  0.000  0.000  0.000  0.000  0.000  0.000  0.019
    3  0.000  0.023  0.000  0.000  0.000  0.000  0.000  0.000  0.000  0.023
    4  0.000  0.023  0.000  0.000  0.000  0.000  0.000  0.000  0.000  0.023
    5  0.001  0.047  0.007  0.000  0.000  0.000  0.000  0.000  0.000  0.055
    6  0.001  0.047  0.007  0.000  0.000  0.000  0.000  0.000  0.000  0.055
    7  0.001  0.047  0.007  0.000  0.000  0.000  0.000  0.000  0.000  0.055
    8  0.001  0.047  0.007  0.000  0.000  0.000  0.000  0.000  0.000  0.055
    9  0.000  0.023  0.000  0.000  0.000  0.000  0.000  0.000  0.000  0.023
   10  0.000  0.023  0.000  0.000  0.000  0.000  0.000  0.000  0.000  0.023
   11  0.001  0.011  0.007  0.000  0.000  0.000  0.000  0.000  0.000  0.019
   12  0.001  0.011  0.007  0.000  0.000  0.000  0.000  0.000  0.000  0.019
tot    0.008  0.321  0.054  0.000  0.000  0.000  0.000  0.000  0.000  0.383
 
band    11 # energy   -5.54646389 # occ.  2.00000000
 
ion      s     py     pz     px    dxy    dyz    dz2    dxz  x2-y2    tot
    1  0.002  0.030  0.011  0.000  0.000  0.000  0.000  0.000  0.000  0.043
    2  0.002  0.030  0.011  0.000  0.000  0.000  0.000  0.000  0.000  0.043
    3  0.001  0.038  0.006  0.000  0.000  0.000  0.000  0.000  0.000  0.045
    4  0.001  0.038  0.006  0.000  0.000  0.000  0.000  0.000  0.000  0.045
    5  0.000  0.003  0.009  0.000  0.000  0.000  0.000  0.000  0.000  0.012
    6  0.000  0.003  0.009  0.000  0.000  0.000  0.000  0.000  0.000  0.012
    7  0.000  0.003  0.009  0.000  0.000  0.000  0.000  0.000  0.000  0.012
    8  0.000  0.003  0.009  0.000  0.000  0.000  0.000  0.000  0.000  0.012
    9  0.001  0.038  0.006  0.000  0.000  0.000  0.000  0.000  0.000  0.045
   10  0.001  0.038  0.006  0.000  0.000  0.000  0.000  0.000  0.000  0.045
   11  0.002  0.030  0.011  0.000  0.000  0.000  0.000  0.000  0.000  0.043
   12  0.002  0.030  0.011  0.000  0.000  0.000  0.000  0.000  0.000  0.043
tot    0.011  0.286  0.100  0.000  0.000  0.000  0.000  0.000  0.000  0.398
 
band    12 # energy   -5.12825279 # occ.  2.00000000
 
ion      s     py     pz     px    dxy    dyz    dz2    dxz  x2-y2    tot
    1  0.001  0.031  0.002  0.000  0.000  0.000  0.000  0.000  0.000  0.035
    2  0.001  0.031  0.002  0.000  0.000  0.000  0.000  0.000  0.000  0.035
    3  0.001  0.015  0.021  0.000  0.000  0.000  0.000  0.000  0.000  0.038
    4  0.001  0.015  0.021  0.000  0.000  0.000  0.000  0.000  0.000  0.038
    5  0.001  0.022  0.012  0.000  0.000  0.000  0.000  0.000  0.000  0.035
    6  0.001  0.022  0.012  0.000  0.000  0.000  0.000  0.000  0.000  0.035
    7  0.001  0.022  0.012  0.000  0.000  0.000  0.000  0.000  0.000  0.035
    8  0.001  0.022  0.012  0.000  0.000  0.000  0.000  0.000  0.000  0.035
    9  0.001  0.015  0.021  0.000  0.000  0.000  0.000  0.000  0.000  0.038
   10  0.001  0.015  0.021  0.000  0.000  0.000  0.000  0.000  0.000  0.038
   11  0.001  0.031  0.002  0.000  0.000  0.000  0.000  0.000  0.000  0.035
   12  0.001  0.031  0.002  0.000  0.000  0.000  0.000  0.000  0.000  0.035
tot    0.016  0.274  0.140  0.000  0.000  0.000  0.000  0.000  0.000  0.430
 
band    13 # energy   -4.50556104 # occ.  2.00000000
 
ion      s     py     pz     px    dxy    dyz    dz2    dxz  x2-y2    tot
    1  0.001  0.017  0.008  0.000  0.000  0.000  0.000  0.000  0.000  0.026
    2  0.001  0.017  0.008  0.000  0.000  0.000  0.000  0.000  0.000  0.026
    3  0.000  0.000  0.033  0.000  0.000  0.000  0.000  0.000  0.000  0.034
    4  0.000  0.000  0.033  0.000  0.000  0.000  0.000  0.000  0.000  0.034
    5  0.000  0.007  0.021  0.000  0.000  0.000  0.000  0.000  0.000  0.028
    6  0.000  0.007  0.021  0.000  0.000  0.000  0.000  0.000  0.000  0.028
    7  0.000  0.007  0.021  0.000  0.000  0.000  0.000  0.000  0.000  0.028
    8  0.000  0.007  0.021  0.000  0.000  0.000  0.000  0.000  0.000  0.028
    9  0.000  0.000  0.033  0.000  0.000  0.000  0.000  0.000  0.000  0.034
   10  0.000  0.000  0.033  0.000  0.000  0.000  0.000  0.000  0.000  0.034
   11  0.001  0.017  0.008  0.000  0.000  0.000  0.000  0.000  0.000  0.026
   12  0.001  0.017  0.008  0.000  0.000  0.000  0.000  0.000  0.000  0.026
tot    0.003  0.099  0.248  0.000  0.000  0.000  0.000  0.000  0.000  0.351
 
band    14 # energy   -4.50529873 # occ.  2.00000000
 
ion      s     py     pz     px    dxy    dyz    dz2    dxz  x2-y2    tot
    1  0.029  0.001  0.003  0.000  0.000  0.000  0.000  0.000  0.000  0.032
    2  0.029  0.001  0.003  0.000  0.000  0.000  0.000  0.000  0.000  0.032
    3  0.025  0.003  0.003  0.000  0.000  0.000  0.000  0.000  0.000  0.031
    4  0.025  0.003  0.003  0.000  0.000  0.000  0.000  0.000  0.000  0.031
    5  0.076  0.005  0.008  0.000  0.000  0.000  0.000  0.000  0.000  0.089
    6  0.076  0.005  0.008  0.000  0.000  0.000  0.000  0.000  0.000  0.089
    7  0.076  0.005  0.008  0.000  0.000  0.000  0.000  0.000  0.000  0.089
    8  0.076  0.005  0.008  0.000  0.000  0.000  0.000  0.000  0.000  0.089
    9  0.025  0.003  0.003  0.000  0.000  0.000  0.000  0.000  0.000  0.031
   10  0.025  0.003  0.003  0.000  0.000  0.000  0.000  0.000  0.000  0.031
   11  0.029  0.001  0.003  0.000  0.000  0.000  0.000  0.000  0.000  0.032
   12  0.029  0.001  0.003  0.000  0.000  0.000  0.000  0.000  0.000  0.032
tot    0.520  0.033  0.057  0.000  0.000  0.000  0.000  0.000  0.000  0.610
 
band    15 # energy   -4.18775705 # occ.  2.00000000
 
ion      s     py     pz     px    dxy    dyz    dz2    dxz  x2-y2    tot
    1  0.069  0.003  0.007  0.000  0.000  0.000  0.000  0.000  0.000  0.079
    2  0.069  0.003  0.007  0.000  0.000  0.000  0.000  0.000  0.000  0.079
    3  0.068  0.004  0.007  0.000  0.000  0.000  0.000  0.000  0.000  0.079
    4  0.068  0.004  0.007  0.000  0.000  0.000  0.000  0.000  0.000  0.079
    5  0.000  0.001  0.000  0.000  0.000  0.000  0.000  0.000  0.000  0.001
    6  0.000  0.001  0.000  0.000  0.000  0.000  0.000  0.000  0.000  0.001
    7  0.000  0.001  0.000  0.000  0.000  0.000  0.000  0.000  0.000  0.001
    8  0.000  0.001  0.000  0.000  0.000  0.000  0.000  0.000  0.000  0.001
    9  0.068  0.004  0.007  0.000  0.000  0.000  0.000  0.000  0.000  0.079
   10  0.068  0.004  0.007  0.000  0.000  0.000  0.000  0.000  0.000  0.079
   11  0.069  0.003  0.007  0.000  0.000  0.000  0.000  0.000  0.000  0.079
   12  0.069  0.003  0.007  0.000  0.000  0.000  0.000  0.000  0.000  0.079
tot    0.546  0.032  0.058  0.000  0.000  0.000  0.000  0.000  0.000  0.636
 
band    16 # energy   -4.14326486 # occ.  2.00000000
 
ion      s     py     pz     px    dxy    dyz    dz2    dxz  x2-y2    tot
    1  0.001  0.006  0.035  0.000  0.000  0.000  0.000  0.000  0.000  0.041
    2  0.001  0.006  0.035  0.000  0.000  0.000  0.000  0.000  0.000  0.041
    3  0.001  0.009  0.024  0.000  0.000  0.000  0.000  0.000  0.000  0.034
    4  0.001  0.009  0.024  0.000  0.000  0.000  0.000  0.000  0.000  0.034
    5  0.001  0.007  0.008  0.000  0.000  0.000  0.000  0.000  0.000  0.016
    6  0.001  0.007  0.008  0.000  0.000  0.000  0.000  0.000  0.000  0.016
    7  0.001  0.007  0.008  0.000  0.000  0.000  0.000  0.000  0.000  0.016
    8  0.001  0.007  0.008  0.000  0.000  0.000  0.000  0.000  0.000  0.016
    9  0.001  0.009  0.024  0.000  0.000  0.000  0.000  0.000  0.000  0.034
   10  0.001  0.009  0.024  0.000  0.000  0.000  0.000  0.000  0.000  0.034
   11  0.001  0.006  0.035  0.000  0.000  0.000  0.000  0.000  0.000  0.041
   12  0.001  0.006  0.035  0.000  0.000  0.000  0.000  0.000  0.000  0.041
tot    0.011  0.088  0.265  0.000  0.000  0.000  0.000  0.000  0.000  0.363
 
band    17 # energy   -3.99563559 # occ.  2.00000000
 
ion      s     py     pz     px    dxy    dyz    dz2    dxz  x2-y2    tot
    1  0.000  0.000  0.026  0.000  0.000  0.000  0.000  0.000  0.000  0.026
    2  0.000  0.000  0.026  0.000  0.000  0.000  0.000  0.000  0.000  0.026
    3  0.002  0.009  0.007  0.000  0.000  0.000  0.000  0.000  0.000  0.017
    4  0.002  0.009  0.007  0.000  0.000  0.000  0.000  0.000  0.000  0.017
    5  0.003  0.007  0.036  0.000  0.000  0.000  0.000  0.000  0.000  0.045
    6  0.003  0.007  0.036  0.000  0.000  0.000  0.000  0.000  0.000  0.045
    7  0.003  0.007  0.036  0.000  0.000  0.000  0.000  0.000  0.000  0.045
    8  0.003  0.007  0.036  0.000  0.000  0.000  0.000  0.000  0.000  0.045
    9  0.002  0.009  0.007  0.000  0.000  0.000  0.000  0.000  0.000  0.017
   10  0.002  0.009  0.007  0.000  0.000  0.000  0.000  0.000  0.000  0.017
   11  0.000  0.000  0.026  0.000  0.000  0.000  0.000  0.000  0.000  0.026
   12  0.000  0.000  0.026  0.000  0.000  0.000  0.000  0.000  0.000  0.026
tot    0.021  0.062  0.273  0.000  0.000  0.000  0.000  0.000  0.000  0.356
 
band    18 # energy   -3.92204360 # occ.  2.00000000
 
ion      s     py     pz     px    dxy    dyz    dz2    dxz  x2-y2    tot
    1  0.041  0.003  0.004  0.000  0.000  0.000  0.000  0.000  0.000  0.049
    2  0.041  0.003  0.004  0.000  0.000  0.000  0.000  0.000  0.000  0.049
    3  0.043  0.001  0.004  0.000  0.000  0.000  0.000  0.000  0.000  0.049
    4  0.043  0.001  0.004  0.000  0.000  0.000  0.000  0.000  0.000  0.049
    5  0.060  0.003  0.006  0.000  0.000  0.000  0.000  0.000  0.000  0.069
    6  0.060  0.003  0.006  0.000  0.000  0.000  0.000  0.000  0.000  0.069
    7  0.060  0.003  0.006  0.000  0.000  0.000  0.000  0.000  0.000  0.069
    8  0.060  0.003  0.006  0.000  0.000  0.000  0.000  0.000  0.000  0.069
    9  0.043  0.001  0.004  0.000  0.000  0.000  0.000  0.000  0.000  0.049
   10  0.043  0.001  0.004  0.000  0.000  0.000  0.000  0.000  0.000  0.049
   11  0.041  0.003  0.004  0.000  0.000  0.000  0.000  0.000  0.000  0.049
   12  0.041  0.003  0.004  0.000  0.000  0.000  0.000  0.000  0.000  0.049
tot    0.580  0.027  0.059  0.000  0.000  0.000  0.000  0.000  0.000  0.666
 
band    19 # energy   -3.39496982 # occ.  2.00000000
 
ion      s     py     pz     px    dxy    dyz    dz2    dxz  x2-y2    tot
    1  0.000  0.000  0.000  0.016  0.000  0.000  0.000  0.000  0.000  0.016
    2  0.000  0.000  0.000  0.016  0.000  0.000  0.000  0.000  0.000  0.016
    3  0.000  0.000  0.000  0.022  0.000  0.000  0.000  0.000  0.000  0.022
    4  0.000  0.000  0.000  0.022  0.000  0.000  0.000  0.000  0.000  0.022
    5  0.000  0.000  0.000  0.087  0.000  0.000  0.000  0.000  0.000  0.087
    6  0.000  0.000  0.000  0.087  0.000  0.000  0.000  0.000  0.000  0.087
    7  0.000  0.000  0.000  0.087  0.000  0.000  0.000  0.000  0.000  0.087
    8  0.000  0.000  0.000  0.087  0.000  0.000  0.000  0.000  0.000  0.087
    9  0.000  0.000  0.000  0.022  0.000  0.000  0.000  0.000  0.000  0.022
   10  0.000  0.000  0.000  0.022  0.000  0.000  0.000  0.000  0.000  0.022
   11  0.000  0.000  0.000  0.016  0.000  0.000  0.000  0.000  0.000  0.016
   12  0.000  0.000  0.000  0.016  0.000  0.000  0.000  0.000  0.000  0.016
tot    0.000  0.000  0.000  0.497  0.000  0.000  0.000  0.000  0.000  0.497
 
band    20 # energy   -3.29410438 # occ.  2.00000000
 
ion      s     py     pz     px    dxy    dyz    dz2    dxz  x2-y2    tot
    1  0.000  0.000  0.000  0.060  0.000  0.000  0.000  0.000  0.000  0.060
    2  0.000  0.000  0.000  0.060  0.000  0.000  0.000  0.000  0.000  0.060
    3  0.000  0.000  0.000  0.065  0.000  0.000  0.000  0.000  0.000  0.065
    4  0.000  0.000  0.000  0.065  0.000  0.000  0.000  0.000  0.000  0.065
    5  0.000  0.000  0.000  0.000  0.000  0.000  0.000  0.000  0.000  0.000
    6  0.000  0.000  0.000  0.000  0.000  0.000  0.000  0.000  0.000  0.000
    7  0.000  0.000  0.000  0.000  0.000  0.000  0.000  0.000  0.000  0.000
    8  0.000  0.000  0.000  0.000  0.000  0.000  0.000  0.000  0.000  0.000
    9  0.000  0.000  0.000  0.065  0.000  0.000  0.000  0.000  0.000  0.065
   10  0.000  0.000  0.000  0.065  0.000  0.000  0.000  0.000  0.000  0.065
   11  0.000  0.000  0.000  0.060  0.000  0.000  0.000  0.000  0.000  0.060
   12  0.000  0.000  0.000  0.060  0.000  0.000  0.000  0.000  0.000  0.060
tot    0.000  0.000  0.000  0.500  0.000  0.000  0.000  0.000  0.000  0.500
 
band    21 # energy   -3.24435333 # occ.  2.00000000
 
ion      s     py     pz     px    dxy    dyz    dz2    dxz  x2-y2    tot
    1  0.000  0.000  0.000  0.045  0.000  0.000  0.000  0.000  0.000  0.045
    2  0.000  0.000  0.000  0.045  0.000  0.000  0.000  0.000  0.000  0.045
    3  0.000  0.000  0.000  0.042  0.000  0.000  0.000  0.000  0.000  0.042
    4  0.000  0.000  0.000  0.042  0.000  0.000  0.000  0.000  0.000  0.042
    5  0.000  0.000  0.000  0.038  0.000  0.000  0.000  0.000  0.000  0.038
    6  0.000  0.000  0.000  0.038  0.000  0.000  0.000  0.000  0.000  0.038
    7  0.000  0.000  0.000  0.038  0.000  0.000  0.000  0.000  0.000  0.038
    8  0.000  0.000  0.000  0.038  0.000  0.000  0.000  0.000  0.000  0.038
    9  0.000  0.000  0.000  0.042  0.000  0.000  0.000  0.000  0.000  0.042
   10  0.000  0.000  0.000  0.042  0.000  0.000  0.000  0.000  0.000  0.042
   11  0.000  0.000  0.000  0.045  0.000  0.000  0.000  0.000  0.000  0.045
   12  0.000  0.000  0.000  0.045  0.000  0.000  0.000  0.000  0.000  0.045
tot    0.000  0.000  0.000  0.502  0.000  0.000  0.000  0.000  0.000  0.502
 
band    22 # energy   -1.87962226 # occ.  2.00000000
 
ion      s     py     pz     px    dxy    dyz    dz2    dxz  x2-y2    tot
    1  0.000  0.000  0.029  0.000  0.000  0.000  0.000  0.000  0.000  0.029
    2  0.000  0.000  0.029  0.000  0.000  0.000  0.000  0.000  0.000  0.029
    3  0.001  0.001  0.014  0.000  0.000  0.000  0.000  0.000  0.000  0.016
    4  0.001  0.001  0.014  0.000  0.000  0.000  0.000  0.000  0.000  0.016
    5  0.000  0.003  0.054  0.000  0.000  0.000  0.000  0.000  0.000  0.057
    6  0.000  0.003  0.054  0.000  0.000  0.000  0.000  0.000  0.000  0.057
    7  0.000  0.003  0.054  0.000  0.000  0.000  0.000  0.000  0.000  0.057
    8  0.000  0.003  0.054  0.000  0.000  0.000  0.000  0.000  0.000  0.057
    9  0.001  0.001  0.014  0.000  0.000  0.000  0.000  0.000  0.000  0.016
   10  0.001  0.001  0.014  0.000  0.000  0.000  0.000  0.000  0.000  0.016
   11  0.000  0.000  0.029  0.000  0.000  0.000  0.000  0.000  0.000  0.029
   12  0.000  0.000  0.029  0.000  0.000  0.000  0.000  0.000  0.000  0.029
tot    0.004  0.018  0.385  0.000  0.000  0.000  0.000  0.000  0.000  0.408
 
band    23 # energy   -1.73609749 # occ.  2.00000000
 
ion      s     py     pz     px    dxy    dyz    dz2    dxz  x2-y2    tot
    1  0.000  0.000  0.000  0.030  0.000  0.000  0.000  0.000  0.000  0.030
    2  0.000  0.000  0.000  0.030  0.000  0.000  0.000  0.000  0.000  0.030
    3  0.000  0.000  0.000  0.021  0.000  0.000  0.000  0.000  0.000  0.021
    4  0.000  0.000  0.000  0.021  0.000  0.000  0.000  0.000  0.000  0.021
    5  0.000  0.000  0.000  0.082  0.000  0.000  0.000  0.000  0.000  0.082
    6  0.000  0.000  0.000  0.082  0.000  0.000  0.000  0.000  0.000  0.082
    7  0.000  0.000  0.000  0.082  0.000  0.000  0.000  0.000  0.000  0.082
    8  0.000  0.000  0.000  0.082  0.000  0.000  0.000  0.000  0.000  0.082
    9  0.000  0.000  0.000  0.021  0.000  0.000  0.000  0.000  0.000  0.021
   10  0.000  0.000  0.000  0.021  0.000  0.000  0.000  0.000  0.000  0.021
   11  0.000  0.000  0.000  0.030  0.000  0.000  0.000  0.000  0.000  0.030
   12  0.000  0.000  0.000  0.030  0.000  0.000  0.000  0.000  0.000  0.030
tot    0.000  0.000  0.000  0.528  0.000  0.000  0.000  0.000  0.000  0.528
 
band    24 # energy   -1.62445805 # occ.  2.00000000
 
ion      s     py     pz     px    dxy    dyz    dz2    dxz  x2-y2    tot
    1  0.000  0.007  0.042  0.000  0.000  0.000  0.000  0.000  0.000  0.049
    2  0.000  0.007  0.042  0.000  0.000  0.000  0.000  0.000  0.000  0.049
    3  0.000  0.005  0.038  0.000  0.000  0.000  0.000  0.000  0.000  0.043
    4  0.000  0.005  0.038  0.000  0.000  0.000  0.000  0.000  0.000  0.043
    5  0.002  0.001  0.002  0.000  0.000  0.000  0.000  0.000  0.000  0.006
    6  0.002  0.001  0.002  0.000  0.000  0.000  0.000  0.000  0.000  0.006
    7  0.002  0.001  0.002  0.000  0.000  0.000  0.000  0.000  0.000  0.006
    8  0.002  0.001  0.002  0.000  0.000  0.000  0.000  0.000  0.000  0.006
    9  0.000  0.005  0.038  0.000  0.000  0.000  0.000  0.000  0.000  0.043
   10  0.000  0.005  0.038  0.000  0.000  0.000  0.000  0.000  0.000  0.043
   11  0.000  0.007  0.042  0.000  0.000  0.000  0.000  0.000  0.000  0.049
   12  0.000  0.007  0.042  0.000  0.000  0.000  0.000  0.000  0.000  0.049
tot    0.011  0.052  0.328  0.000  0.000  0.000  0.000  0.000  0.000  0.391
 
band    25 # energy   -1.58908046 # occ.  2.00000000
 
ion      s     py     pz     px    dxy    dyz    dz2    dxz  x2-y2    tot
    1  0.000  0.000  0.000  0.068  0.000  0.000  0.000  0.000  0.000  0.068
    2  0.000  0.000  0.000  0.068  0.000  0.000  0.000  0.000  0.000  0.068
    3  0.000  0.000  0.000  0.065  0.000  0.000  0.000  0.000  0.000  0.065
    4  0.000  0.000  0.000  0.065  0.000  0.000  0.000  0.000  0.000  0.065
    5  0.000  0.000  0.000  0.000  0.000  0.000  0.000  0.000  0.000  0.000
    6  0.000  0.000  0.000  0.000  0.000  0.000  0.000  0.000  0.000  0.000
    7  0.000  0.000  0.000  0.000  0.000  0.000  0.000  0.000  0.000  0.000
    8  0.000  0.000  0.000  0.000  0.000  0.000  0.000  0.000  0.000  0.000
    9  0.000  0.000  0.000  0.065  0.000  0.000  0.000  0.000  0.000  0.065
   10  0.000  0.000  0.000  0.065  0.000  0.000  0.000  0.000  0.000  0.065
   11  0.000  0.000  0.000  0.068  0.000  0.000  0.000  0.000  0.000  0.068
   12  0.000  0.000  0.000  0.068  0.000  0.000  0.000  0.000  0.000  0.068
tot    0.000  0.000  0.000  0.535  0.000  0.000  0.000  0.000  0.000  0.535
 
band    26 # energy   -1.50440596 # occ.  2.00000000
 
ion      s     py     pz     px    dxy    dyz    dz2    dxz  x2-y2    tot
    1  0.000  0.000  0.000  0.040  0.000  0.000  0.000  0.000  0.000  0.040
    2  0.000  0.000  0.000  0.040  0.000  0.000  0.000  0.000  0.000  0.040
    3  0.000  0.000  0.000  0.044  0.000  0.000  0.000  0.000  0.000  0.044
    4  0.000  0.000  0.000  0.044  0.000  0.000  0.000  0.000  0.000  0.044
    5  0.000  0.000  0.000  0.052  0.000  0.000  0.000  0.000  0.000  0.052
    6  0.000  0.000  0.000  0.052  0.000  0.000  0.000  0.000  0.000  0.052
    7  0.000  0.000  0.000  0.052  0.000  0.000  0.000  0.000  0.000  0.052
    8  0.000  0.000  0.000  0.052  0.000  0.000  0.000  0.000  0.000  0.052
    9  0.000  0.000  0.000  0.044  0.000  0.000  0.000  0.000  0.000  0.044
   10  0.000  0.000  0.000  0.044  0.000  0.000  0.000  0.000  0.000  0.044
   11  0.000  0.000  0.000  0.040  0.000  0.000  0.000  0.000  0.000  0.040
   12  0.000  0.000  0.000  0.040  0.000  0.000  0.000  0.000  0.000  0.040
tot    0.000  0.000  0.000  0.541  0.000  0.000  0.000  0.000  0.000  0.541
 
band    27 # energy   -1.10763651 # occ.  2.00000000
 
ion      s     py     pz     px    dxy    dyz    dz2    dxz  x2-y2    tot
    1  0.000  0.013  0.014  0.000  0.000  0.000  0.000  0.000  0.000  0.027
    2  0.000  0.013  0.014  0.000  0.000  0.000  0.000  0.000  0.000  0.027
    3  0.003  0.003  0.032  0.000  0.000  0.000  0.000  0.000  0.000  0.038
    4  0.003  0.003  0.032  0.000  0.000  0.000  0.000  0.000  0.000  0.038
    5  0.001  0.012  0.023  0.000  0.000  0.000  0.000  0.000  0.000  0.036
    6  0.001  0.012  0.023  0.000  0.000  0.000  0.000  0.000  0.000  0.036
    7  0.001  0.012  0.023  0.000  0.000  0.000  0.000  0.000  0.000  0.036
    8  0.001  0.012  0.023  0.000  0.000  0.000  0.000  0.000  0.000  0.036