 vasp.5.4.4.18Apr17-6-g9f103f2a35 (build Jun 20 2017 18:00:50) complex          
  
 executed on             LinuxIFC date 2018.03.16  16:02:16
 running on   32 total cores
 distrk:  each k-point on   32 cores,    1 groups
 distr:  one band on NCORES_PER_BAND=   8 cores,    4 groups


--------------------------------------------------------------------------------------------------------


 INCAR:
 POTCAR:    PAW_PBE P 06Sep2000                   
 POTCAR:    PAW_PBE P 06Sep2000                   
   VRHFIN =P : s2p3                                                             
   LEXCH  = PE                                                                  
   EATOM  =   176.0430 eV,   12.9388 Ry                                         
                                                                                
   TITEL  = PAW_PBE P 06Sep2000                                                 
   LULTRA =        F    use ultrasoft PP ?                                      
   IUNSCR =        1    unscreen: 0-lin 1-nonlin 2-no                           
   RPACOR =    1.500    partial core radius                                     
   POMASS =   30.974; ZVAL   =    5.000    mass and valenz                      
   RCORE  =    1.900    outmost cutoff radius                                   
   RWIGS  =    2.330; RWIGS  =    1.233    wigner-seitz radius (au A)           
   ENMAX  =  255.040; ENMIN  =  191.280 eV                                      
   ICORE  =        2    local potential                                         
   LCOR   =        T    correct aug charges                                     
   LPAW   =        T    paw PP                                                  
   EAUG   =  342.924                                                            
   DEXC   =    0.000                                                            
   RMAX   =    1.935    core radius for proj-oper                               
   RAUG   =    1.300    factor for augmentation sphere                          
   RDEP   =    1.931    radius for radial grids                                 
   RDEPT  =    1.794    core radius for aug-charge                              
                                                                                
   Atomic configuration                                                         
    6 entries                                                                   
     n  l   j            E        occ.                                          
     1  0  0.50     -2084.0982   2.0000                                         
     2  0  0.50      -173.9859   2.0000                                         
     2  1  1.50      -124.4865   6.0000                                         
     3  0  0.50       -13.9692   2.0000                                         
     3  1  0.50        -5.5067   3.0000                                         
     3  2  1.50        -5.4423   0.0000                                         
   Description                                                                  
     l       E           TYP  RCUT    TYP  RCUT                                 
     0    -13.9691527     23  1.900                                             
     0    -11.7794650     23  1.900                                             
     1     -5.5066937     23  1.900                                             
     1     -0.2556953     23  1.900                                             
     2     -5.4423304     23  1.900                                             
  local pseudopotential read in
  partial core-charges read in
  partial kinetic energy density read in
  atomic valenz-charges read in
  non local Contribution for L=           0  read in
    real space projection operators read in
  non local Contribution for L=           0  read in
    real space projection operators read in
  non local Contribution for L=           1  read in
    real space projection operators read in
  non local Contribution for L=           1  read in
    real space projection operators read in
    PAW grid and wavefunctions read in
 
   number of l-projection  operators is LMAX  =           4
   number of lm-projection operators is LMMAX =           8
 
  PAW_PBE P 06Sep2000                   :
 energy of atom  1       EATOM= -176.0430
 kinetic energy error for atom=    0.0023 (will be added to EATOM!!)
 
 
 POSCAR: P12                                     
  positions in direct lattice
  No initial velocities read in
 exchange correlation table for  LEXCH =        8
   RHO(1)=    0.500       N(1)  =     2000
   RHO(2)=  100.500       N(2)  =     4000
 


--------------------------------------------------------------------------------------------------------


 ion  position               nearest neighbor table
   1  0.000  0.307  0.919-   2 2.23   2 2.23   3 2.26
   2  0.500  0.307  0.581-   1 2.23   1 2.23   4 2.26
   3  0.000  0.372  0.081-   4 2.23   4 2.23   1 2.26
   4  0.500  0.372  0.419-   3 2.23   3 2.23   2 2.26
   5  0.500  0.467  0.919-   6 2.23   6 2.23   7 2.26
   6  0.000  0.467  0.581-   5 2.23   5 2.23   8 2.26
   7  0.500  0.533  0.081-   8 2.23   8 2.23   5 2.26
   8  0.000  0.533  0.419-   7 2.23   7 2.23   6 2.26
   9  0.000  0.628  0.919-  10 2.23  10 2.23  11 2.26
  10  0.500  0.628  0.581-   9 2.23   9 2.23  12 2.26
  11  0.000  0.693  0.081-  12 2.23  12 2.23   9 2.26
  12  0.500  0.693  0.419-  11 2.23  11 2.23  10 2.26
 
  LATTYP: Found a simple orthorhombic cell.
 ALAT       =     3.3428860000
 B/A-ratio  =     1.3086988309
 C/A-ratio  =     9.7527732026
  
  Lattice vectors:
  
 A1 = (  -3.3428860000,   0.0000000000,   0.0000000000)
 A2 = (   0.0000000000,   0.0000000000,  -4.3748310000)
 A3 = (   0.0000000000, -32.6024090000,   0.0000000000)


Analysis of symmetry for initial positions (statically):
=====================================================================
 Subroutine PRICEL returns:
 Original cell was already a primitive cell.
 

 Routine SETGRP: Setting up the symmetry group for a 
 simple orthorhombic supercell.


 Subroutine GETGRP returns: Found  8 space group operations
 (whereof  4 operations were pure point group operations)
 out of a pool of  8 trial point group operations.


The static configuration has the point symmetry C_2h.
 The point group associated with its full space group is D_2h.


Analysis of symmetry for dynamics (positions and initial velocities):
=====================================================================
 Subroutine PRICEL returns:
 Original cell was already a primitive cell.
 

 Routine SETGRP: Setting up the symmetry group for a 
 simple orthorhombic supercell.


 Subroutine GETGRP returns: Found  8 space group operations
 (whereof  4 operations were pure point group operations)
 out of a pool of  8 trial point group operations.


The dynamic configuration has the point symmetry C_2h.
 The point group associated with its full space group is D_2h.


 Subroutine INISYM returns: Found  8 space group operations
 (whereof  4 operations are pure point group operations),
 and found     1 'primitive' translations

 
 
 KPOINTS: Automatic mesh                          

Automatic generation of k-mesh.
Space group operators:
 irot       det(A)        alpha          n_x          n_y          n_z        tau_x        tau_y        tau_z
    1     1.000000     0.000001     1.000000     0.000000     0.000000     0.000000     0.000000     0.000000
    2    -1.000000     0.000001     1.000000     0.000000     0.000000     0.000000     0.000000     0.000000
    3     1.000000   179.999999     1.000000     0.000000     0.000000     0.000000     0.000000     0.000000
    4    -1.000000   179.999999     1.000000     0.000000     0.000000     0.000000     0.000000     0.000000
    5     1.000000   179.999999     0.000000     1.000000     0.000000    -0.500000     0.000000    -0.500000
    6    -1.000000   179.999999     0.000000     1.000000     0.000000    -0.500000     0.000000    -0.500000
    7     1.000000   179.999999     0.000000     0.000000     1.000000    -0.500000     0.000000    -0.500000
    8    -1.000000   179.999999     0.000000     0.000000     1.000000    -0.500000     0.000000    -0.500000
 
 Subroutine IBZKPT returns following result:
 ===========================================
 
 Found     12 irreducible k-points:
 
 Following reciprocal coordinates:
            Coordinates               Weight
  0.000000  0.000000  0.000000      1.000000
  0.166667  0.000000  0.000000      2.000000
  0.333333  0.000000  0.000000      2.000000
  0.500000  0.000000  0.000000      1.000000
  0.000000  0.000000  0.250000      2.000000
  0.166667  0.000000  0.250000      4.000000
  0.333333  0.000000  0.250000      4.000000
  0.500000  0.000000  0.250000      2.000000
  0.000000  0.000000  0.500000      1.000000
  0.166667  0.000000  0.500000      2.000000
  0.333333  0.000000  0.500000      2.000000
  0.500000  0.000000  0.500000      1.000000
 
 Following cartesian coordinates:
            Coordinates               Weight
  0.000000  0.000000  0.000000      1.000000
  0.049857  0.000000  0.000000      2.000000
  0.099714  0.000000  0.000000      2.000000
  0.149571  0.000000  0.000000      1.000000
  0.000000  0.000000  0.057145      2.000000
  0.049857  0.000000  0.057145      4.000000
  0.099714  0.000000  0.057145      4.000000
  0.149571  0.000000  0.057145      2.000000
  0.000000  0.000000  0.114290      1.000000
  0.049857  0.000000  0.114290      2.000000
  0.099714  0.000000  0.114290      2.000000
  0.149571  0.000000  0.114290      1.000000
 


--------------------------------------------------------------------------------------------------------




 Dimension of arrays:
   k-points           NKPTS =     12   k-points in BZ     NKDIM =     12   number of bands    NBANDS=     40
   number of dos      NEDOS =   2000   number of ions     NIONS =     12
   non local maximal  LDIM  =      4   non local SUM 2l+1 LMDIM =      8
   total plane-waves  NPLWV =  61440
   max r-space proj   IRMAX =      1   max aug-charges    IRDMAX=   4120
   dimension x,y,z NGX =    16 NGY =  160 NGZ =   24
   dimension x,y,z NGXF=    32 NGYF=  320 NGZF=   48
   support grid    NGXF=    32 NGYF=  320 NGZF=   48
   ions per type =              12
   NGX,Y,Z   is equivalent  to a cutoff of   7.96,  8.16,  9.12 a.u.
   NGXF,Y,Z  is equivalent  to a cutoff of  15.91, 16.32, 18.24 a.u.

 SYSTEM =  Generic Input                           
 POSCAR =  P12                                     

 Startparameter for this run:
   NWRITE =      2    write-flag & timer
   PREC   = normal    normal or accurate (medium, high low for compatibility)
   ISTART =      0    job   : 0-new  1-cont  2-samecut
   ICHARG =      2    charge: 1-file 2-atom 10-const
   ISPIN  =      1    spin polarized calculation?
   LNONCOLLINEAR =      F non collinear calculations
   LSORBIT =      F    spin-orbit coupling
   INIWAV =      1    electr: 0-lowe 1-rand  2-diag
   LASPH  =      T    aspherical Exc in radial PAW
   METAGGA=      F    non-selfconsistent MetaGGA calc.

 Electronic Relaxation 1
   ENCUT  =  400.0 eV  29.40 Ry    5.42 a.u.   5.45 53.17  7.13*2*pi/ulx,y,z
   ENINI  =  400.0     initial cutoff
   ENAUG  =  342.9 eV  augmentation charge cutoff
   NELM   =    200;   NELMIN=  2; NELMDL=  0     # of ELM steps 
   EDIFF  = 0.1E-04   stopping-criterion for ELM
   LREAL  =      F    real-space projection
   NLSPLINE    = F    spline interpolate recip. space projectors
   LCOMPAT=      F    compatible to vasp.4.4
   GGA_COMPAT  = T    GGA compatible to vasp.4.4-vasp.4.6
   LMAXPAW     = -100 max onsite density
   LMAXMIX     =    2 max onsite mixed and CHGCAR
   VOSKOWN=      0    Vosko Wilk Nusair interpolation
   ROPT   =    0.00000
 Ionic relaxation
   EDIFFG = -.2E-01   stopping-criterion for IOM
   NSW    =      0    number of steps for IOM
   NBLOCK =      1;   KBLOCK =      1    inner block; outer block 
   IBRION =     -1    ionic relax: 0-MD 1-quasi-New 2-CG
   NFREE  =      1    steps in history (QN), initial steepest desc. (CG)
   ISIF   =      3    stress and relaxation
   IWAVPR =     11    prediction:  0-non 1-charg 2-wave 3-comb
   ISYM   =      2    0-nonsym 1-usesym 2-fastsym
   LCORR  =      T    Harris-Foulkes like correction to forces

   POTIM  = 0.5000    time-step for ionic-motion
   TEIN   =    0.0    initial temperature
   TEBEG  =    0.0;   TEEND  =   0.0 temperature during run
   SMASS  =  -3.00    Nose mass-parameter (am)
   estimated Nose-frequenzy (Omega)   =  0.10E-29 period in steps =****** mass=  -0.255E-27a.u.
   SCALEE = 1.0000    scale energy and forces
   NPACO  =    256;   APACO  = 16.0  distance and # of slots for P.C.
   PSTRESS=    0.0 pullay stress

  Mass of Ions in am
   POMASS =  30.97
  Ionic Valenz
   ZVAL   =   5.00
  Atomic Wigner-Seitz radii
   RWIGS  =  -1.00
  virtual crystal weights 
   VCA    =   1.00
   NELECT =      60.0000    total number of electrons
   NUPDOWN=      -1.0000    fix difference up-down

 DOS related values:
   EMIN   =  10.00;   EMAX   =-10.00  energy-range for DOS
   EFERMI =   0.00
   ISMEAR =     0;   SIGMA  =   0.01  broadening in eV -4-tet -1-fermi 0-gaus

 Electronic relaxation 2 (details)
   IALGO  =     38    algorithm
   LDIAG  =      T    sub-space diagonalisation (order eigenvalues)
   LSUBROT=      F    optimize rotation matrix (better conditioning)
   TURBO    =      0    0=normal 1=particle mesh
   IRESTART =      0    0=no restart 2=restart with 2 vectors
   NREBOOT  =      0    no. of reboots
   NMIN     =      0    reboot dimension
   EREF     =   0.00    reference energy to select bands
   IMIX   =      4    mixing-type and parameters
     AMIX     =   0.40;   BMIX     =  1.00
     AMIX_MAG =   1.60;   BMIX_MAG =  1.00
     AMIN     =   0.10
     WC   =   100.;   INIMIX=   1;  MIXPRE=   1;  MAXMIX= -45

 Intra band minimization:
   WEIMIN = 0.0000     energy-eigenvalue tresh-hold
   EBREAK =  0.63E-07  absolut break condition
   DEPER  =   0.30     relativ break condition  

   TIME   =   0.40     timestep for ELM

  volume/ion in A,a.u.               =      39.73       268.13
  Fermi-wavevector in a.u.,A,eV,Ry     =   0.820379  1.550291  9.157011  0.673021
  Thomas-Fermi vector in A             =   1.931350
 
 Write flags
   LWAVE        =      T    write WAVECAR
   LDOWNSAMPLE  =      F    k-point downsampling of WAVECAR
   LCHARG       =      T    write CHGCAR
   LVTOT        =      F    write LOCPOT, total local potential
   LVHAR        =      T    write LOCPOT, Hartree potential only
   LELF         =      F    write electronic localiz. function (ELF)
   LORBIT       =     11    0 simple, 1 ext, 2 COOP (PROOUT), +10 PAW based schemes


 Dipole corrections
   LMONO  =      F    monopole corrections only (constant potential shift)
   LDIPOL =      F    correct potential (dipole corrections)
   IDIPOL =      0    1-x, 2-y, 3-z, 4-all directions 
   EPSILON=  1.0000000 bulk dielectric constant

 Core level calculations are selected ICORELEVEL =  1
 Exchange correlation treatment:
   GGA     =    PE    GGA type
   LEXCH   =     8    internal setting for exchange type
   VOSKOWN=      0    Vosko Wilk Nusair interpolation
   LHFCALC =     F    Hartree Fock is set to
   LHFONE  =     F    Hartree Fock one center treatment
   AEXX    =    0.0000 exact exchange contribution

 Linear response parameters
   LEPSILON=     F    determine dielectric tensor
   LRPA    =     F    only Hartree local field effects (RPA)
   LNABLA  =     F    use nabla operator in PAW spheres
   LVEL    =     F    velocity operator in full k-point grid
   LINTERFAST=   F  fast interpolation
   KINTER  =     0    interpolate to denser k-point grid
   CSHIFT  =0.1000    complex shift for real part using Kramers Kronig
   OMEGAMAX=  -1.0    maximum frequency
   DEG_THRESHOLD= 0.2000000E-02 threshold for treating states as degnerate
   RTIME   =   -0.100 relaxation time in fs
  (WPLASMAI=    0.000 imaginary part of plasma frequency in eV, 0.658/RTIME)
   DFIELD  = 0.0000000 0.0000000 0.0000000 field for delta impulse in time
 
 Orbital magnetization related:
   ORBITALMAG=     F  switch on orbital magnetization
   LCHIMAG   =     F  perturbation theory with respect to B field
   DQ        =  0.001000  dq finite difference perturbation B field
   LLRAUG    =     F  two centre corrections for induced B field



--------------------------------------------------------------------------------------------------------


 Static calculation
 charge density and potential will be updated during run
 non-spin polarized calculation
 Variant of blocked Davidson
 Davidson routine will perform the subspace rotation
 perform sub-space diagonalisation
    after iterative eigenvector-optimisation
 modified Broyden-mixing scheme, WC =      100.0
 initial mixing is a Kerker type mixing with AMIX =  0.4000 and BMIX =      1.0000
 Hartree-type preconditioning will be used
 using additional bands           10
 reciprocal scheme for non local part
 use partial core corrections
 calculate Harris-corrections to forces 
   (improved forces if not selfconsistent)
 use gradient corrections 
 use of overlap-Matrix (Vanderbilt PP)
 Gauss-broadening in eV      SIGMA  =   0.01


--------------------------------------------------------------------------------------------------------


  energy-cutoff  :      400.00
  volume of cell :      476.80
      direct lattice vectors                 reciprocal lattice vectors
     3.342886000  0.000000000  0.000000000     0.299142717  0.000000000  0.000000000
     0.000000000 32.602409000  0.000000000     0.000000000  0.030672580  0.000000000
     0.000000000  0.000000000  4.374831000     0.000000000  0.000000000  0.228580258

  length of vectors
     3.342886000 32.602409000  4.374831000     0.299142717  0.030672580  0.228580258


 
 k-points in units of 2pi/SCALE and weight: Automatic mesh                          
   0.00000000  0.00000000  0.00000000       0.042
   0.04985712  0.00000000  0.00000000       0.083
   0.09971424  0.00000000  0.00000000       0.083
   0.14957136  0.00000000  0.00000000       0.042
   0.00000000  0.00000000  0.05714506       0.083
   0.04985712  0.00000000  0.05714506       0.167
   0.09971424  0.00000000  0.05714506       0.167
   0.14957136  0.00000000  0.05714506       0.083
   0.00000000  0.00000000  0.11429013       0.042
   0.04985712  0.00000000  0.11429013       0.083
   0.09971424  0.00000000  0.11429013       0.083
   0.14957136  0.00000000  0.11429013       0.042
 
 k-points in reciprocal lattice and weights: Automatic mesh                          
   0.00000000  0.00000000  0.00000000       0.042
   0.16666667  0.00000000  0.00000000       0.083
   0.33333333  0.00000000  0.00000000       0.083
   0.50000000  0.00000000  0.00000000       0.042
   0.00000000  0.00000000  0.25000000       0.083
   0.16666667  0.00000000  0.25000000       0.167
   0.33333333  0.00000000  0.25000000       0.167
   0.50000000  0.00000000  0.25000000       0.083
   0.00000000  0.00000000  0.50000000       0.042
   0.16666667  0.00000000  0.50000000       0.083
   0.33333333  0.00000000  0.50000000       0.083
   0.50000000  0.00000000  0.50000000       0.042
 
 position of ions in fractional coordinates (direct lattice) 
   0.00000000  0.30672600  0.91892400
   0.50000000  0.30672600  0.58107600
   0.00000000  0.37246700  0.08107600
   0.50000000  0.37246700  0.41892400
   0.50000000  0.46712900  0.91892400
   0.00000000  0.46712900  0.58107600
   0.50000000  0.53287100  0.08107600
   0.00000000  0.53287100  0.41892400
   0.00000000  0.62753300  0.91892400
   0.50000000  0.62753300  0.58107600
   0.00000000  0.69327400  0.08107600
   0.50000000  0.69327400  0.41892400
 
 position of ions in cartesian coordinates  (Angst):
   0.00000000 10.00000650  4.02013720
   1.67144300 10.00000650  2.54210930
   0.00000000 12.14332147  0.35469380
   1.67144300 12.14332147  1.83272170
   1.67144300 15.22953071  4.02013720
   0.00000000 15.22953071  2.54210930
   1.67144300 17.37287829  0.35469380
   0.00000000 17.37287829  1.83272170
   0.00000000 20.45908753  4.02013720
   1.67144300 20.45908753  2.54210930
   0.00000000 22.60240250  0.35469380
   1.67144300 22.60240250  1.83272170
 


--------------------------------------------------------------------------------------------------------


 k-point  1 :   0.0000 0.0000 0.0000  plane waves:    8627
 k-point  2 :   0.1667 0.0000 0.0000  plane waves:    8683
 k-point  3 :   0.3333 0.0000 0.0000  plane waves:    8669
 k-point  4 :   0.5000 0.0000 0.0000  plane waves:    8610
 k-point  5 :   0.0000 0.0000 0.2500  plane waves:    8712
 k-point  6 :   0.1667 0.0000 0.2500  plane waves:    8683
 k-point  7 :   0.3333 0.0000 0.2500  plane waves:    8644
 k-point  8 :   0.5000 0.0000 0.2500  plane waves:    8628
 k-point  9 :   0.0000 0.0000 0.5000  plane waves:    8766
 k-point 10 :   0.1667 0.0000 0.5000  plane waves:    8712
 k-point 11 :   0.3333 0.0000 0.5000  plane waves:    8648
 k-point 12 :   0.5000 0.0000 0.5000  plane waves:    8572

 maximum and minimum number of plane-waves per node :      1109     1062

 maximum number of plane-waves:      8766
 maximum index in each direction: 
   IXMAX=    5   IYMAX=   53   IZMAX=    7
   IXMIN=   -5   IYMIN=  -53   IZMIN=   -7


 parallel 3D FFT for wavefunctions:
    minimum data exchange during FFTs selected (reduces bandwidth)
 parallel 3D FFT for charge:
    minimum data exchange during FFTs selected (reduces bandwidth)


 total amount of memory used by VASP MPI-rank0    35100. kBytes
=======================================================================

   base      :      30000. kBytes
   nonl-proj :       1067. kBytes
   fftplans  :        792. kBytes
   grid      :       1070. kBytes
   one-center:          6. kBytes
   wavefun   :       2165. kBytes
 
     INWAV:  cpu time    0.0000: real time    0.0000
 Broyden mixing: mesh for mixing (old mesh)
   NGX = 11   NGY =107   NGZ = 15
  (NGX  = 32   NGY  =320   NGZ  = 48)
  gives a total of  17655 points

 initial charge density was supplied:
 charge density of overlapping atoms calculated
 number of electron      60.0000000 magnetization 
 keeping initial charge density in first step


--------------------------------------------------------------------------------------------------------


 Maximum index for augmentation-charges          313 (set IRDMAX)


--------------------------------------------------------------------------------------------------------


 First call to EWALD:  gamma=   0.227
 Maximum number of real-space cells 6x 1x 5
 Maximum number of reciprocal cells 1x10x 2

    FEWALD:  cpu time    0.0017: real time    0.0017


--------------------------------------- Iteration      1(   1)  ---------------------------------------


    POTLOK:  cpu time    0.0345: real time    0.0365
    SETDIJ:  cpu time    0.0641: real time    0.0641
     EDDAV:  cpu time    0.4921: real time    0.4933
       DOS:  cpu time    0.0005: real time    0.0005
    --------------------------------------------
      LOOP:  cpu time    0.5913: real time    0.5944

 eigenvalue-minimisations  :   960
 total energy-change (2. order) : 0.3364658E+03  (-0.1925164E+04)
 number of electron      60.0000000 magnetization 
 augmentation part       60.0000000 magnetization 

 Free energy of the ion-electron system (eV)
  ---------------------------------------------------
  alpha Z        PSCENC =        30.28014394
  Ewald energy   TEWEN  =     14973.24208224
  -Hartree energ DENC   =    -16928.93300519
  -exchange      EXHF   =         0.00000000
  -V(xc)+E(xc)   XCENC  =        40.33410248
  PAW double counting   =      1677.12035881    -1579.18296132
  entropy T*S    EENTRO =        -0.00000628
  eigenvalues    EBANDS =        11.11639936
  atomic energy  EATOM  =      2112.48864025
  Solvation  Ediel_sol  =         0.00000000
  ---------------------------------------------------
  free energy    TOTEN  =       336.46575428 eV

  energy without entropy =      336.46576057  energy(sigma->0) =      336.46575742


--------------------------------------------------------------------------------------------------------




--------------------------------------- Iteration      1(   2)  ---------------------------------------


     EDDAV:  cpu time    0.6011: real time    0.6029
       DOS:  cpu time    0.0004: real time    0.0004
    --------------------------------------------
      LOOP:  cpu time    0.6015: real time    0.6033

 eigenvalue-minimisations  :  1336
 total energy-change (2. order) :-0.3626711E+03  (-0.3518390E+03)
 number of electron      60.0000000 magnetization 
 augmentation part       60.0000000 magnetization 

 Free energy of the ion-electron system (eV)
  ---------------------------------------------------
  alpha Z        PSCENC =        30.28014394
  Ewald energy   TEWEN  =     14973.24208224
  -Hartree energ DENC   =    -16928.93300519
  -exchange      EXHF   =         0.00000000
  -V(xc)+E(xc)   XCENC  =        40.33410248
  PAW double counting   =      1677.12035881    -1579.18296132
  entropy T*S    EENTRO =        -0.00000000
  eigenvalues    EBANDS =      -351.55473632
  atomic energy  EATOM  =      2112.48864025
  Solvation  Ediel_sol  =         0.00000000
  ---------------------------------------------------
  free energy    TOTEN  =       -26.20537511 eV

  energy without entropy =      -26.20537511  energy(sigma->0) =      -26.20537511


--------------------------------------------------------------------------------------------------------




--------------------------------------- Iteration      1(   3)  ---------------------------------------


     EDDAV:  cpu time    0.5296: real time    0.5318
       DOS:  cpu time    0.0004: real time    0.0004
    --------------------------------------------
      LOOP:  cpu time    0.5300: real time    0.5322

 eigenvalue-minimisations  :  1128
 total energy-change (2. order) :-0.3713441E+02  (-0.3657337E+02)
 number of electron      60.0000000 magnetization 
 augmentation part       60.0000000 magnetization 

 Free energy of the ion-electron system (eV)
  ---------------------------------------------------
  alpha Z        PSCENC =        30.28014394
  Ewald energy   TEWEN  =     14973.24208224
  -Hartree energ DENC   =    -16928.93300519
  -exchange      EXHF   =         0.00000000
  -V(xc)+E(xc)   XCENC  =        40.33410248
  PAW double counting   =      1677.12035881    -1579.18296132
  entropy T*S    EENTRO =        -0.00000000
  eigenvalues    EBANDS =      -388.68914762
  atomic energy  EATOM  =      2112.48864025
  Solvation  Ediel_sol  =         0.00000000
  ---------------------------------------------------
  free energy    TOTEN  =       -63.33978642 eV

  energy without entropy =      -63.33978642  energy(sigma->0) =      -63.33978642


--------------------------------------------------------------------------------------------------------




--------------------------------------- Iteration      1(   4)  ---------------------------------------


     EDDAV:  cpu time    0.6470: real time    0.6478
       DOS:  cpu time    0.0004: real time    0.0004
    --------------------------------------------
      LOOP:  cpu time    0.6474: real time    0.6483

 eigenvalue-minimisations  :  1432
 total energy-change (2. order) :-0.1432959E+01  (-0.1426029E+01)
 number of electron      60.0000000 magnetization 
 augmentation part       60.0000000 magnetization 

 Free energy of the ion-electron system (eV)
  ---------------------------------------------------
  alpha Z        PSCENC =        30.28014394
  Ewald energy   TEWEN  =     14973.24208224
  -Hartree energ DENC   =    -16928.93300519
  -exchange      EXHF   =         0.00000000
  -V(xc)+E(xc)   XCENC  =        40.33410248
  PAW double counting   =      1677.12035881    -1579.18296132
  entropy T*S    EENTRO =        -0.00000000
  eigenvalues    EBANDS =      -390.12210666
  atomic energy  EATOM  =      2112.48864025
  Solvation  Ediel_sol  =         0.00000000
  ---------------------------------------------------
  free energy    TOTEN  =       -64.77274545 eV

  energy without entropy =      -64.77274545  energy(sigma->0) =      -64.77274545


--------------------------------------------------------------------------------------------------------




--------------------------------------- Iteration      1(   5)  ---------------------------------------


     EDDAV:  cpu time    0.6273: real time    0.6300
       DOS:  cpu time    0.0004: real time    0.0004
    CHARGE:  cpu time    0.0271: real time    0.0271
    MIXING:  cpu time    0.0007: real time    0.0007
    --------------------------------------------
      LOOP:  cpu time    0.6556: real time    0.6582

 eigenvalue-minimisations  :  1392
 total energy-change (2. order) :-0.3752489E-01  (-0.3749999E-01)
 number of electron      59.9999939 magnetization 
 augmentation part       -6.5203782 magnetization 

 Broyden mixing:
  rms(total) = 0.17530E+01    rms(broyden)= 0.17530E+01
  rms(prec ) = 0.17585E+01
  weight for this iteration     100.00

 Free energy of the ion-electron system (eV)
  ---------------------------------------------------
  alpha Z        PSCENC =        30.28014394
  Ewald energy   TEWEN  =     14973.24208224
  -Hartree energ DENC   =    -16928.93300519
  -exchange      EXHF   =         0.00000000
  -V(xc)+E(xc)   XCENC  =        40.33410248
  PAW double counting   =      1677.12035881    -1579.18296132
  entropy T*S    EENTRO =        -0.00000000
  eigenvalues    EBANDS =      -390.15963155
  atomic energy  EATOM  =      2112.48864025
  Solvation  Ediel_sol  =         0.00000000
  ---------------------------------------------------
  free energy    TOTEN  =       -64.81027034 eV

  energy without entropy =      -64.81027034  energy(sigma->0) =      -64.81027034


--------------------------------------------------------------------------------------------------------




--------------------------------------- Iteration      1(   6)  ---------------------------------------


    POTLOK:  cpu time    0.0127: real time    0.0144
    SETDIJ:  cpu time    0.0645: real time    0.0645
     EDDAV:  cpu time    0.5751: real time    0.5759
       DOS:  cpu time    0.0004: real time    0.0004
    CHARGE:  cpu time    0.0270: real time    0.0270
    MIXING:  cpu time    0.0007: real time    0.0007
    --------------------------------------------
      LOOP:  cpu time    0.6804: real time    0.6829

 eigenvalue-minimisations  :  1248
 total energy-change (2. order) : 0.3244053E+00  (-0.1988545E-01)
 number of electron      59.9999940 magnetization 
 augmentation part       -6.4821508 magnetization 

 Broyden mixing:
  rms(total) = 0.10395E+01    rms(broyden)= 0.10395E+01
  rms(prec ) = 0.10428E+01
  weight for this iteration     100.00

 eigenvalues of (default mixing * dielectric matrix)
  average eigenvalue GAMMA=   2.4491
  2.4491

 Free energy of the ion-electron system (eV)
  ---------------------------------------------------
  alpha Z        PSCENC =        30.28014394
  Ewald energy   TEWEN  =     14973.24208224
  -Hartree energ DENC   =    -16941.12359576
  -exchange      EXHF   =         0.00000000
  -V(xc)+E(xc)   XCENC  =        41.37553201
  PAW double counting   =      3129.03208859    -3031.55732874
  entropy T*S    EENTRO =        -0.00000000
  eigenvalues    EBANDS =      -378.22342752
  atomic energy  EATOM  =      2112.48864025
  Solvation  Ediel_sol  =         0.00000000
  ---------------------------------------------------
  free energy    TOTEN  =       -64.48586501 eV

  energy without entropy =      -64.48586501  energy(sigma->0) =      -64.48586501


--------------------------------------------------------------------------------------------------------




--------------------------------------- Iteration      1(   7)  ---------------------------------------


    POTLOK:  cpu time    0.0123: real time    0.0143
    SETDIJ:  cpu time    0.0644: real time    0.0644
     EDDAV:  cpu time    0.5462: real time    0.5469
       DOS:  cpu time    0.0005: real time    0.0005
    CHARGE:  cpu time    0.0266: real time    0.0266
    MIXING:  cpu time    0.0006: real time    0.0006
    --------------------------------------------
      LOOP:  cpu time    0.6506: real time    0.6534

 eigenvalue-minimisations  :  1184
 total energy-change (2. order) : 0.1484016E+00  (-0.3613049E-01)
 number of electron      59.9999940 magnetization 
 augmentation part       -6.4356366 magnetization 

 Broyden mixing:
  rms(total) = 0.43970E-01    rms(broyden)= 0.43969E-01
  rms(prec ) = 0.45287E-01
  weight for this iteration     100.00

 eigenvalues of (default mixing * dielectric matrix)
  average eigenvalue GAMMA=   2.0640
  1.5980  2.5299

 Free energy of the ion-electron system (eV)
  ---------------------------------------------------
  alpha Z        PSCENC =        30.28014394
  Ewald energy   TEWEN  =     14973.24208224
  -Hartree energ DENC   =    -16959.83778063
  -exchange      EXHF   =         0.00000000
  -V(xc)+E(xc)   XCENC  =        43.06220203
  PAW double counting   =      6230.70975508    -6133.80089509
  entropy T*S    EENTRO =        -0.00000026
  eigenvalues    EBANDS =      -360.48161099
  atomic energy  EATOM  =      2112.48864025
  Solvation  Ediel_sol  =         0.00000000
  ---------------------------------------------------
  free energy    TOTEN  =       -64.33746344 eV

  energy without entropy =      -64.33746318  energy(sigma->0) =      -64.33746331


--------------------------------------------------------------------------------------------------------




--------------------------------------- Iteration      1(   8)  ---------------------------------------


    POTLOK:  cpu time    0.0137: real time    0.0138
    SETDIJ:  cpu time    0.0645: real time    0.0645
     EDDAV:  cpu time    0.5697: real time    0.5705
       DOS:  cpu time    0.0005: real time    0.0005
    CHARGE:  cpu time    0.0270: real time    0.0270
    MIXING:  cpu time    0.0006: real time    0.0006
    --------------------------------------------
      LOOP:  cpu time    0.6760: real time    0.6769

 eigenvalue-minimisations  :  1240
 total energy-change (2. order) : 0.2662196E-03  (-0.3212649E-02)
 number of electron      59.9999940 magnetization 
 augmentation part       -6.4460542 magnetization 

 Broyden mixing:
  rms(total) = 0.23233E-01    rms(broyden)= 0.23233E-01
  rms(prec ) = 0.23915E-01
  weight for this iteration     100.00

 eigenvalues of (default mixing * dielectric matrix)
  average eigenvalue GAMMA=   1.6039
  2.5253  1.1431  1.1431

 Free energy of the ion-electron system (eV)
  ---------------------------------------------------
  alpha Z        PSCENC =        30.28014394
  Ewald energy   TEWEN  =     14973.24208224
  -Hartree energ DENC   =    -16961.03596722
  -exchange      EXHF   =         0.00000000
  -V(xc)+E(xc)   XCENC  =        43.09294787
  PAW double counting   =      6337.47270034    -6240.49042246
  entropy T*S    EENTRO =        -0.00000006
  eigenvalues    EBANDS =      -359.38732211
  atomic energy  EATOM  =      2112.48864025
  Solvation  Ediel_sol  =         0.00000000
  ---------------------------------------------------
  free energy    TOTEN  =       -64.33719722 eV

  energy without entropy =      -64.33719716  energy(sigma->0) =      -64.33719719


--------------------------------------------------------------------------------------------------------




--------------------------------------- Iteration      1(   9)  ---------------------------------------


    POTLOK:  cpu time    0.0139: real time    0.0140
    SETDIJ:  cpu time    0.0645: real time    0.0645
     EDDAV:  cpu time    0.6319: real time    0.6325
       DOS:  cpu time    0.0006: real time    0.0006
    CHARGE:  cpu time    0.0269: real time    0.0269
    MIXING:  cpu time    0.0006: real time    0.0006
    --------------------------------------------
      LOOP:  cpu time    0.7383: real time    0.7391

 eigenvalue-minimisations  :  1408
 total energy-change (2. order) : 0.2032719E-04  (-0.1780700E-03)
 number of electron      59.9999940 magnetization 
 augmentation part       -6.4463141 magnetization 

 Broyden mixing:
  rms(total) = 0.19757E-01    rms(broyden)= 0.19757E-01
  rms(prec ) = 0.20336E-01
  weight for this iteration     100.00

 eigenvalues of (default mixing * dielectric matrix)
  average eigenvalue GAMMA=   1.8653
  2.3303  2.3303  1.4003  1.4003

 Free energy of the ion-electron system (eV)
  ---------------------------------------------------
  alpha Z        PSCENC =        30.28014394
  Ewald energy   TEWEN  =     14973.24208224
  -Hartree energ DENC   =    -16961.83736886
  -exchange      EXHF   =         0.00000000
  -V(xc)+E(xc)   XCENC  =        43.10181418
  PAW double counting   =      6336.36119837    -6239.37227665
  entropy T*S    EENTRO =        -0.00000006
  eigenvalues    EBANDS =      -358.60141028
  atomic energy  EATOM  =      2112.48864025
  Solvation  Ediel_sol  =         0.00000000
  ---------------------------------------------------
  free energy    TOTEN  =       -64.33717689 eV

  energy without entropy =      -64.33717683  energy(sigma->0) =      -64.33717686


--------------------------------------------------------------------------------------------------------




--------------------------------------- Iteration      1(  10)  ---------------------------------------


    POTLOK:  cpu time    0.0276: real time    0.0289
    SETDIJ:  cpu time    0.0827: real time    0.0827
     EDDAV:  cpu time    0.5730: real time    0.5739
       DOS:  cpu time    0.0005: real time    0.0005
    CHARGE:  cpu time    0.0267: real time    0.0267
    MIXING:  cpu time    0.0006: real time    0.0006
    --------------------------------------------
      LOOP:  cpu time    0.7111: real time    0.7132

 eigenvalue-minimisations  :  1192
 total energy-change (2. order) : 0.2301881E-03  (-0.3843477E-04)
 number of electron      59.9999940 magnetization 
 augmentation part       -6.4476066 magnetization 

 Broyden mixing:
  rms(total) = 0.14408E-01    rms(broyden)= 0.14408E-01
  rms(prec ) = 0.14892E-01
  weight for this iteration     100.00

 eigenvalues of (default mixing * dielectric matrix)
  average eigenvalue GAMMA=   1.7746
  2.5273  2.5273  1.5623  1.1279  1.1279

 Free energy of the ion-electron system (eV)
  ---------------------------------------------------
  alpha Z        PSCENC =        30.28014394
  Ewald energy   TEWEN  =     14973.24208224
  -Hartree energ DENC   =    -16962.83437336
  -exchange      EXHF   =         0.00000000
  -V(xc)+E(xc)   XCENC  =        43.08639456
  PAW double counting   =      6263.94348867    -6166.93040547
  entropy T*S    EENTRO =        -0.00000004
  eigenvalues    EBANDS =      -357.61291750
  atomic energy  EATOM  =      2112.48864025
  Solvation  Ediel_sol  =         0.00000000
  ---------------------------------------------------
  free energy    TOTEN  =       -64.33694670 eV

  energy without entropy =      -64.33694667  energy(sigma->0) =      -64.33694668


--------------------------------------------------------------------------------------------------------




--------------------------------------- Iteration      1(  11)  ---------------------------------------


    POTLOK:  cpu time    0.0126: real time    0.0142
    SETDIJ:  cpu time    0.0646: real time    0.0646
     EDDAV:  cpu time    0.5726: real time    0.5736
       DOS:  cpu time    0.0005: real time    0.0005
    CHARGE:  cpu time    0.0264: real time    0.0264
    MIXING:  cpu time    0.0007: real time    0.0007
    --------------------------------------------
      LOOP:  cpu time    0.6774: real time    0.6799

 eigenvalue-minimisations  :  1216
 total energy-change (2. order) : 0.2371891E-03  (-0.4031203E-04)
 number of electron      59.9999940 magnetization 
 augmentation part       -6.4471741 magnetization 

 Broyden mixing:
  rms(total) = 0.48067E-02    rms(broyden)= 0.48067E-02
  rms(prec ) = 0.53298E-02
  weight for this iteration     100.00

 eigenvalues of (default mixing * dielectric matrix)
  average eigenvalue GAMMA=   1.6554
  2.5694  2.5694  1.4073  1.0840  1.1512  1.1512

 Free energy of the ion-electron system (eV)
  ---------------------------------------------------
  alpha Z        PSCENC =        30.28014394
  Ewald energy   TEWEN  =     14973.24208224
  -Hartree energ DENC   =    -16964.75256662
  -exchange      EXHF   =         0.00000000
  -V(xc)+E(xc)   XCENC  =        43.11736141
  PAW double counting   =      6281.17032944    -6184.15176632
  entropy T*S    EENTRO =        -0.00000005
  eigenvalues    EBANDS =      -355.73093380
  atomic energy  EATOM  =      2112.48864025
  Solvation  Ediel_sol  =         0.00000000
  ---------------------------------------------------
  free energy    TOTEN  =       -64.33670951 eV

  energy without entropy =      -64.33670946  energy(sigma->0) =      -64.33670949


--------------------------------------------------------------------------------------------------------




--------------------------------------- Iteration      1(  12)  ---------------------------------------


    POTLOK:  cpu time    0.0131: real time    0.0144
    SETDIJ:  cpu time    0.0645: real time    0.0645
     EDDAV:  cpu time    0.5669: real time    0.5677
       DOS:  cpu time    0.0005: real time    0.0005
    CHARGE:  cpu time    0.0274: real time    0.0274
    MIXING:  cpu time    0.0007: real time    0.0007
    --------------------------------------------
      LOOP:  cpu time    0.6731: real time    0.6752

 eigenvalue-minimisations  :  1200
 total energy-change (2. order) :-0.6162159E-04  (-0.5190653E-05)
 number of electron      59.9999940 magnetization 
 augmentation part       -6.4471080 magnetization 

 Broyden mixing:
  rms(total) = 0.16991E-02    rms(broyden)= 0.16991E-02
  rms(prec ) = 0.24905E-02
  weight for this iteration     100.00

 eigenvalues of (default mixing * dielectric matrix)
  average eigenvalue GAMMA=   1.7749
  2.9604  2.5643  1.6703  1.6703  1.0208  1.2691  1.2691

 Free energy of the ion-electron system (eV)
  ---------------------------------------------------
  alpha Z        PSCENC =        30.28014394
  Ewald energy   TEWEN  =     14973.24208224
  -Hartree energ DENC   =    -16965.42612282
  -exchange      EXHF   =         0.00000000
  -V(xc)+E(xc)   XCENC  =        43.12286345
  PAW double counting   =      6286.98889002    -6189.97043512
  entropy T*S    EENTRO =        -0.00000005
  eigenvalues    EBANDS =      -355.06283304
  atomic energy  EATOM  =      2112.48864025
  Solvation  Ediel_sol  =         0.00000000
  ---------------------------------------------------
  free energy    TOTEN  =       -64.33677114 eV

  energy without entropy =      -64.33677108  energy(sigma->0) =      -64.33677111


--------------------------------------------------------------------------------------------------------




--------------------------------------- Iteration      1(  13)  ---------------------------------------


    POTLOK:  cpu time    0.0127: real time    0.0144
    SETDIJ:  cpu time    0.0646: real time    0.0646
     EDDAV:  cpu time    0.5256: real time    0.5262
       DOS:  cpu time    0.0005: real time    0.0005
    CHARGE:  cpu time    0.0260: real time    0.0260
    MIXING:  cpu time    0.0007: real time    0.0007
    --------------------------------------------
      LOOP:  cpu time    0.6302: real time    0.6324

 eigenvalue-minimisations  :  1088
 total energy-change (2. order) :-0.2143106E-03  (-0.8331216E-05)
 number of electron      59.9999940 magnetization 
 augmentation part       -6.4468544 magnetization 

 Broyden mixing:
  rms(total) = 0.32833E-02    rms(broyden)= 0.32833E-02
  rms(prec ) = 0.34235E-02
  weight for this iteration     100.00

 eigenvalues of (default mixing * dielectric matrix)
  average eigenvalue GAMMA=   1.8136
  3.7163  2.4730  2.3335  1.6637  1.1377  1.1377  1.0236  1.0236

 Free energy of the ion-electron system (eV)
  ---------------------------------------------------
  alpha Z        PSCENC =        30.28014394
  Ewald energy   TEWEN  =     14973.24208224
  -Hartree energ DENC   =    -16966.77707329
  -exchange      EXHF   =         0.00000000
  -V(xc)+E(xc)   XCENC  =        43.13356898
  PAW double counting   =      6295.09144937    -6198.07277275
  entropy T*S    EENTRO =        -0.00000006
  eigenvalues    EBANDS =      -353.72302412
  atomic energy  EATOM  =      2112.48864025
  Solvation  Ediel_sol  =         0.00000000
  ---------------------------------------------------
  free energy    TOTEN  =       -64.33698545 eV

  energy without entropy =      -64.33698538  energy(sigma->0) =      -64.33698541


--------------------------------------------------------------------------------------------------------




--------------------------------------- Iteration      1(  14)  ---------------------------------------


    POTLOK:  cpu time    0.0128: real time    0.0142
    SETDIJ:  cpu time    0.0646: real time    0.0646
     EDDAV:  cpu time    0.5144: real time    0.5153
       DOS:  cpu time    0.0005: real time    0.0005
    CHARGE:  cpu time    0.0268: real time    0.0268
    MIXING:  cpu time    0.0008: real time    0.0008
    --------------------------------------------
      LOOP:  cpu time    0.6199: real time    0.6222

 eigenvalue-minimisations  :  1056
 total energy-change (2. order) :-0.1583028E-03  (-0.2871682E-05)
 number of electron      59.9999940 magnetization 
 augmentation part       -6.4467291 magnetization 

 Broyden mixing:
  rms(total) = 0.32955E-02    rms(broyden)= 0.32955E-02
  rms(prec ) = 0.33550E-02
  weight for this iteration     100.00

 eigenvalues of (default mixing * dielectric matrix)
  average eigenvalue GAMMA=   1.6364
  3.5641  2.4027  2.4027  1.6706  1.1721  1.1721  1.0157  1.0157  0.3123

 Free energy of the ion-electron system (eV)
  ---------------------------------------------------
  alpha Z        PSCENC =        30.28014394
  Ewald energy   TEWEN  =     14973.24208224
  -Hartree energ DENC   =    -16967.35822704
  -exchange      EXHF   =         0.00000000
  -V(xc)+E(xc)   XCENC  =        43.13587668
  PAW double counting   =      6293.42711525    -6196.40856666
  entropy T*S    EENTRO =        -0.00000007
  eigenvalues    EBANDS =      -353.14420834
  atomic energy  EATOM  =      2112.48864025
  Solvation  Ediel_sol  =         0.00000000
  ---------------------------------------------------
  free energy    TOTEN  =       -64.33714375 eV

  energy without entropy =      -64.33714368  energy(sigma->0) =      -64.33714372


--------------------------------------------------------------------------------------------------------




--------------------------------------- Iteration      1(  15)  ---------------------------------------


    POTLOK:  cpu time    0.0128: real time    0.0143
    SETDIJ:  cpu time    0.0646: real time    0.0646
     EDDAV:  cpu time    0.4142: real time    0.4151
       DOS:  cpu time    0.0005: real time    0.0005
    CHARGE:  cpu time    0.0268: real time    0.0268
    MIXING:  cpu time    0.0008: real time    0.0008
    --------------------------------------------
      LOOP:  cpu time    0.5197: real time    0.5221

 eigenvalue-minimisations  :   760
 total energy-change (2. order) :-0.3296925E-04  (-0.2300020E-06)
 number of electron      59.9999940 magnetization 
 augmentation part       -6.4467465 magnetization 

 Broyden mixing:
  rms(total) = 0.23238E-02    rms(broyden)= 0.23238E-02
  rms(prec ) = 0.23987E-02
  weight for this iteration     100.00

 eigenvalues of (default mixing * dielectric matrix)
  average eigenvalue GAMMA=   1.9832
  5.0660  2.6742  2.5060  1.9421  1.9421  1.3731  1.3731  1.0803  0.9377  0.9377

 Free energy of the ion-electron system (eV)
  ---------------------------------------------------
  alpha Z        PSCENC =        30.28014394
  Ewald energy   TEWEN  =     14973.24208224
  -Hartree energ DENC   =    -16967.38051360
  -exchange      EXHF   =         0.00000000
  -V(xc)+E(xc)   XCENC  =        43.13534949
  PAW double counting   =      6291.71643920    -6194.69789698
  entropy T*S    EENTRO =        -0.00000007
  eigenvalues    EBANDS =      -353.12142118
  atomic energy  EATOM  =      2112.48864025
  Solvation  Ediel_sol  =         0.00000000
  ---------------------------------------------------
  free energy    TOTEN  =       -64.33717672 eV

  energy without entropy =      -64.33717665  energy(sigma->0) =      -64.33717668


--------------------------------------------------------------------------------------------------------




--------------------------------------- Iteration      1(  16)  ---------------------------------------


    POTLOK:  cpu time    0.0127: real time    0.0144
    SETDIJ:  cpu time    0.0644: real time    0.0644
     EDDAV:  cpu time    0.4720: real time    0.4726
       DOS:  cpu time    0.0005: real time    0.0005
    CHARGE:  cpu time    0.0262: real time    0.0262
    MIXING:  cpu time    0.0010: real time    0.0010
    --------------------------------------------
      LOOP:  cpu time    0.5768: real time    0.5791

 eigenvalue-minimisations  :   944
 total energy-change (2. order) :-0.2497578E-03  (-0.2298793E-05)
 number of electron      59.9999940 magnetization 
 augmentation part       -6.4466753 magnetization 

 Broyden mixing:
  rms(total) = 0.19293E-02    rms(broyden)= 0.19293E-02
  rms(prec ) = 0.19401E-02
  weight for this iteration     100.00

 eigenvalues of (default mixing * dielectric matrix)
  average eigenvalue GAMMA=   1.9869
  6.5081  2.7260  2.1151  2.1151  2.0563  1.3227  1.3227  1.1139  0.8605  0.8579
  0.8579

 Free energy of the ion-electron system (eV)
  ---------------------------------------------------
  alpha Z        PSCENC =        30.28014394
  Ewald energy   TEWEN  =     14973.24208224
  -Hartree energ DENC   =    -16968.03235669
  -exchange      EXHF   =         0.00000000
  -V(xc)+E(xc)   XCENC  =        43.13532819
  PAW double counting   =      6283.79088431    -6186.77205475
  entropy T*S    EENTRO =        -0.00000007
  eigenvalues    EBANDS =      -352.47009390
  atomic energy  EATOM  =      2112.48864025
  Solvation  Ediel_sol  =         0.00000000
  ---------------------------------------------------
  free energy    TOTEN  =       -64.33742648 eV

  energy without entropy =      -64.33742641  energy(sigma->0) =      -64.33742644


--------------------------------------------------------------------------------------------------------




--------------------------------------- Iteration      1(  17)  ---------------------------------------


    POTLOK:  cpu time    0.0127: real time    0.0143
    SETDIJ:  cpu time    0.0645: real time    0.0645
     EDDAV:  cpu time    0.4387: real time    0.4395
       DOS:  cpu time    0.0005: real time    0.0005
    CHARGE:  cpu time    0.0276: real time    0.0276
    MIXING:  cpu time    0.0010: real time    0.0010
    --------------------------------------------
      LOOP:  cpu time    0.5450: real time    0.5474

 eigenvalue-minimisations  :   816
 total energy-change (2. order) :-0.2648199E-04  (-0.2575787E-06)
 number of electron      59.9999940 magnetization 
 augmentation part       -6.4466985 magnetization 

 Broyden mixing:
  rms(total) = 0.16551E-02    rms(broyden)= 0.16551E-02
  rms(prec ) = 0.16615E-02
  weight for this iteration     100.00

 eigenvalues of (default mixing * dielectric matrix)
  average eigenvalue GAMMA=   1.8659
  6.4832  2.6740  2.2432  2.2432  1.6918  1.2556  1.2556  1.2164  0.8506  0.8506
  0.8134  0.8134

 Free energy of the ion-electron system (eV)
  ---------------------------------------------------
  alpha Z        PSCENC =        30.28014394
  Ewald energy   TEWEN  =     14973.24208224
  -Hartree energ DENC   =    -16968.14427237
  -exchange      EXHF   =         0.00000000
  -V(xc)+E(xc)   XCENC  =        43.13544988
  PAW double counting   =      6284.03035571    -6187.01128427
  entropy T*S    EENTRO =        -0.00000007
  eigenvalues    EBANDS =      -352.35856826
  atomic energy  EATOM  =      2112.48864025
  Solvation  Ediel_sol  =         0.00000000
  ---------------------------------------------------
  free energy    TOTEN  =       -64.33745296 eV

  energy without entropy =      -64.33745289  energy(sigma->0) =      -64.33745292


--------------------------------------------------------------------------------------------------------




--------------------------------------- Iteration      1(  18)  ---------------------------------------


    POTLOK:  cpu time    0.0128: real time    0.0142
    SETDIJ:  cpu time    0.0802: real time    0.0802
     EDDAV:  cpu time    0.4017: real time    0.4023
       DOS:  cpu time    0.0005: real time    0.0005
    CHARGE:  cpu time    0.0274: real time    0.0274
    MIXING:  cpu time    0.0010: real time    0.0045
    --------------------------------------------
      LOOP:  cpu time    0.5236: real time    0.5291

 eigenvalue-minimisations  :   720
 total energy-change (2. order) :-0.1017389E-04  (-0.5210782E-07)
 number of electron      59.9999940 magnetization 
 augmentation part       -6.4467080 magnetization 

 Broyden mixing:
  rms(total) = 0.10962E-02    rms(broyden)= 0.10962E-02
  rms(prec ) = 0.11026E-02
  weight for this iteration     100.00

 eigenvalues of (default mixing * dielectric matrix)
  average eigenvalue GAMMA=   2.1064
  7.3232  3.5886  2.6354  2.2253  1.9186  1.9186  1.5470  1.5470  0.9189  0.9189
  1.0653  0.8885  0.8885

 Free energy of the ion-electron system (eV)
  ---------------------------------------------------
  alpha Z        PSCENC =        30.28014394
  Ewald energy   TEWEN  =     14973.24208224
  -Hartree energ DENC   =    -16968.15530965
  -exchange      EXHF   =         0.00000000
  -V(xc)+E(xc)   XCENC  =        43.13558588
  PAW double counting   =      6285.02515247    -6188.00604537
  entropy T*S    EENTRO =        -0.00000007
  eigenvalues    EBANDS =      -352.34771282
  atomic energy  EATOM  =      2112.48864025
  Solvation  Ediel_sol  =         0.00000000
  ---------------------------------------------------
  free energy    TOTEN  =       -64.33746313 eV

  energy without entropy =      -64.33746306  energy(sigma->0) =      -64.33746310


--------------------------------------------------------------------------------------------------------




--------------------------------------- Iteration      1(  19)  ---------------------------------------


    POTLOK:  cpu time    0.0128: real time    0.0146
    SETDIJ:  cpu time    0.0645: real time    0.0645
     EDDAV:  cpu time    0.4365: real time    0.4372
       DOS:  cpu time    0.0005: real time    0.0005
    CHARGE:  cpu time    0.0269: real time    0.0269
    MIXING:  cpu time    0.0011: real time    0.0011
    --------------------------------------------
      LOOP:  cpu time    0.5422: real time    0.5447

 eigenvalue-minimisations  :   832
 total energy-change (2. order) :-0.4916485E-04  (-0.1957973E-06)
 number of electron      59.9999940 magnetization 
 augmentation part       -6.4467266 magnetization 

 Broyden mixing:
  rms(total) = 0.34206E-03    rms(broyden)= 0.34206E-03
  rms(prec ) = 0.34713E-03
  weight for this iteration     100.00

 eigenvalues of (default mixing * dielectric matrix)
  average eigenvalue GAMMA=   1.9999
  7.6543  3.4661  2.5871  2.1194  1.7663  1.7663  1.5222  1.5222  1.1782  0.9167
  0.9167  0.9013  0.9013  0.7802

 Free energy of the ion-electron system (eV)
  ---------------------------------------------------
  alpha Z        PSCENC =        30.28014394
  Ewald energy   TEWEN  =     14973.24208224
  -Hartree energ DENC   =    -16968.21437839
  -exchange      EXHF   =         0.00000000
  -V(xc)+E(xc)   XCENC  =        43.13564312
  PAW double counting   =      6287.28512909    -6190.26606194
  entropy T*S    EENTRO =        -0.00000007
  eigenvalues    EBANDS =      -352.28871052
  atomic energy  EATOM  =      2112.48864025
  Solvation  Ediel_sol  =         0.00000000
  ---------------------------------------------------
  free energy    TOTEN  =       -64.33751230 eV

  energy without entropy =      -64.33751223  energy(sigma->0) =      -64.33751226


--------------------------------------------------------------------------------------------------------




--------------------------------------- Iteration      1(  20)  ---------------------------------------


    POTLOK:  cpu time    0.0130: real time    0.0146
    SETDIJ:  cpu time    0.0645: real time    0.0645
     EDDAV:  cpu time    0.3998: real time    0.4007
       DOS:  cpu time    0.0005: real time    0.0005
    --------------------------------------------
      LOOP:  cpu time    0.5605: real time    0.5631

 eigenvalue-minimisations  :   720
 total energy-change (2. order) :-0.3663564E-05  (-0.4370494E-07)
 number of electron      59.9999940 magnetization 
 augmentation part       -6.4467266 magnetization 

 Free energy of the ion-electron system (eV)
  ---------------------------------------------------
  alpha Z        PSCENC =        30.28014394
  Ewald energy   TEWEN  =     14973.24208224
  -Hartree energ DENC   =    -16968.22270303
  -exchange      EXHF   =         0.00000000
  -V(xc)+E(xc)   XCENC  =        43.13571724
  PAW double counting   =      6287.39779777    -6190.37876379
  entropy T*S    EENTRO =        -0.00000007
  eigenvalues    EBANDS =      -352.28043049
  atomic energy  EATOM  =      2112.48864025
  Solvation  Ediel_sol  =         0.00000000
  ---------------------------------------------------
  free energy    TOTEN  =       -64.33751596 eV

  energy without entropy =      -64.33751589  energy(sigma->0) =      -64.33751593


--------------------------------------------------------------------------------------------------------




 the core state eigenenergies are
   1-  1s  -2078.3848  2s   -168.4168  2p   -118.9024
   2-  1s  -2078.3848  2s   -168.4168  2p   -118.9024
   3-  1s  -2078.4428  2s   -168.4691  2p   -118.9551
   4-  1s  -2078.4428  2s   -168.4691  2p   -118.9551
   5-  1s  -2078.4768  2s   -168.5028  2p   -118.9889
   6-  1s  -2078.4768  2s   -168.5028  2p   -118.9889
   7-  1s  -2078.4768  2s   -168.5028  2p   -118.9889
   8-  1s  -2078.4768  2s   -168.5028  2p   -118.9889
   9-  1s  -2078.4428  2s   -168.4691  2p   -118.9551
  10-  1s  -2078.4428  2s   -168.4691  2p   -118.9551
  11-  1s  -2078.3848  2s   -168.4168  2p   -118.9024
  12-  1s  -2078.3848  2s   -168.4168  2p   -118.9024
 
 E-fermi :   0.9404     XC(G=0):  -5.1099     alpha+bet : -5.5572


 k-point     1 :       0.0000    0.0000    0.0000
  band No.  band energies     occupation 
      1     -14.8538      2.00000
      2     -14.7331      2.00000
      3     -14.6647      2.00000
      4     -12.3727      2.00000
      5     -12.1265      2.00000
      6     -11.9470      2.00000
      7      -8.6057      2.00000
      8      -8.5210      2.00000
      9      -8.4910      2.00000
     10      -5.9234      2.00000
     11      -5.5444      2.00000
     12      -5.1262      2.00000
     13      -4.5041      2.00000
     14      -4.5041      2.00000
     15      -4.1862      2.00000
     16      -4.1421      2.00000
     17      -3.9949      2.00000
     18      -3.9207      2.00000
     19      -3.3930      2.00000
     20      -3.2918      2.00000
     21      -3.2422      2.00000
     22      -1.8790      2.00000
     23      -1.7356      2.00000
     24      -1.6236      2.00000
     25      -1.5882      2.00000
     26      -1.5034      2.00000
     27      -1.1069      2.00000
     28      -0.2487      2.00000
     29       0.3555      2.00000
     30       0.9107      1.99997
     31       0.9701      0.00003
     32       1.4979      0.00000
     33       1.5235      0.00000
     34       1.6981      0.00000
     35       1.7059      0.00000
     36       1.8616      0.00000
     37       2.7308      0.00000
     38       2.9016      0.00000
     39       2.9722      0.00000
     40       3.6996      0.00000

 k-point     2 :       0.1667    0.0000    0.0000
  band No.  band energies     occupation 
      1     -14.5303      2.00000
      2     -14.4108      2.00000
      3     -14.3436      2.00000
      4     -12.0360      2.00000
      5     -11.7912      2.00000
      6     -11.6128      2.00000
      7      -8.8986      2.00000
      8      -8.8368      2.00000
      9      -8.8308      2.00000
     10      -5.6504      2.00000
     11      -5.2790      2.00000
     12      -4.9717      2.00000
     13      -4.8901      2.00000
     14      -4.8839      2.00000
     15      -4.8521      2.00000
     16      -4.4276      2.00000
     17      -4.3543      2.00000
     18      -4.3433      2.00000
     19      -4.2180      2.00000
     20      -3.8734      2.00000
     21      -3.7294      2.00000
     22      -2.6608      2.00000
     23      -2.5100      2.00000
     24      -2.3449      2.00000
     25      -1.7409      2.00000
     26      -1.4693      2.00000
     27      -0.9669      2.00000
     28      -0.2127      2.00000
     29       0.1880      2.00000
     30       0.4581      2.00000
     31       1.2534      0.00000
     32       1.6581      0.00000
     33       1.8823      0.00000
     34       2.3399      0.00000
     35       2.5520      0.00000
     36       2.5762      0.00000
     37       3.7506      0.00000
     38       3.8765      0.00000
     39       3.9809      0.00000
     40       4.3029      0.00000

 k-point     3 :       0.3333    0.0000    0.0000
  band No.  band energies     occupation 
      1     -13.5772      2.00000
      2     -13.4618      2.00000
      3     -13.3990      2.00000
      4     -11.0344      2.00000
      5     -10.7943      2.00000
      6     -10.6196      2.00000
      7     -10.2409      2.00000
      8     -10.1611      2.00000
      9     -10.1363      2.00000
     10      -7.2204      2.00000
     11      -7.0238      2.00000
     12      -6.8859      2.00000
     13      -4.9297      2.00000
     14      -4.9051      2.00000
     15      -4.8483      2.00000
     16      -4.8391      2.00000
     17      -4.6040      2.00000
     18      -4.3148      2.00000
     19      -3.4251      2.00000
     20      -3.1557      2.00000
     21      -3.0328      2.00000
     22      -2.6847      2.00000
     23      -2.3949      2.00000
     24      -2.1608      2.00000
     25      -1.7898      2.00000
     26      -1.5204      2.00000
     27      -1.1890      2.00000
     28      -0.8923      2.00000
     29      -0.7520      2.00000
     30      -0.6887      2.00000
     31       1.1119      0.00000
     32       1.1734      0.00000
     33       1.4352      0.00000
     34       2.0744      0.00000
     35       2.2859      0.00000
     36       2.6036      0.00000
     37       2.6468      0.00000
     38       2.6627      0.00000
     39       2.6703      0.00000
     40       2.9515      0.00000

 k-point     4 :       0.5000    0.0000    0.0000
  band No.  band energies     occupation 
      1     -12.0667      2.00000
      2     -12.0667      2.00000
      3     -11.9612      2.00000
      4     -11.9612      2.00000
      5     -11.9091      2.00000
      6     -11.9091      2.00000
      7      -9.3990      2.00000
      8      -9.3990      2.00000
      9      -9.1699      2.00000
     10      -9.1699      2.00000
     11      -9.0041      2.00000
     12      -9.0041      2.00000
     13      -4.4688      2.00000
     14      -4.4688      2.00000
     15      -4.3340      2.00000
     16      -4.3340      2.00000
     17      -4.2886      2.00000
     18      -4.2886      2.00000
     19      -2.4666      2.00000
     20      -2.4666      2.00000
     21      -2.3925      2.00000
     22      -2.3925      2.00000
     23      -2.3921      2.00000
     24      -2.3921      2.00000
     25      -2.0097      2.00000
     26      -2.0097      2.00000
     27      -1.7387      2.00000
     28      -1.7387      2.00000
     29      -1.4867      2.00000
     30      -1.4867      2.00000
     31       1.6199      0.00000
     32       1.6199      0.00000
     33       1.6327      0.00000
     34       1.6327      0.00000
     35       1.7146      0.00000
     36       1.7146      0.00000
     37       2.1559      0.00000
     38       2.1560      0.00000
     39       2.1926      0.00000
     40       2.1928      0.00000

 k-point     5 :       0.0000    0.0000    0.2500
  band No.  band energies     occupation 
      1     -14.5024      2.00000
      2     -14.3889      2.00000
      3     -14.3282      2.00000
      4     -12.5952      2.00000
      5     -12.4609      2.00000
      6     -12.4005      2.00000
      7      -9.0049      2.00000
      8      -8.8477      2.00000
      9      -8.7254      2.00000
     10      -6.9110      2.00000
     11      -6.6378      2.00000
     12      -6.4702      2.00000
     13      -4.5478      2.00000
     14      -4.0366      2.00000
     15      -3.3747      2.00000
     16      -3.1158      2.00000
     17      -3.0624      2.00000
     18      -3.0230      2.00000
     19      -2.9823      2.00000
     20      -2.7175      2.00000
     21      -2.7165      2.00000
     22      -1.8641      2.00000
     23      -1.7631      2.00000
     24      -1.7324      2.00000
     25      -1.7247      2.00000
     26      -1.0735      2.00000
     27      -0.4249      2.00000
     28      -0.2663      2.00000
     29      -0.2033      2.00000
     30      -0.0259      2.00000
     31       1.6804      0.00000
     32       2.0070      0.00000
     33       2.1148      0.00000
     34       2.2078      0.00000
     35       2.2582      0.00000
     36       2.2616      0.00000
     37       2.3691      0.00000
     38       2.7098      0.00000
     39       3.2560      0.00000
     40       3.3079      0.00000

 k-point     6 :       0.1667    0.0000    0.2500
  band No.  band energies     occupation 
      1     -14.1836      2.00000
      2     -14.0713      2.00000
      3     -14.0119      2.00000
      4     -12.2793      2.00000
      5     -12.1494      2.00000
      6     -12.0931      2.00000
      7      -9.0386      2.00000
      8      -8.8859      2.00000
      9      -8.7729      2.00000
     10      -6.7951      2.00000
     11      -6.5651      2.00000
     12      -6.4187      2.00000
     13      -4.9850      2.00000
     14      -4.8440      2.00000
     15      -4.7153      2.00000
     16      -4.5105      2.00000
     17      -4.0364      2.00000
     18      -3.7226      2.00000
     19      -3.3121      2.00000
     20      -3.1964      2.00000
     21      -2.9129      2.00000
     22      -2.3347      2.00000
     23      -2.1639      2.00000
     24      -2.1423      2.00000
     25      -1.4979      2.00000
     26      -0.9503      2.00000
     27      -0.8598      2.00000
     28      -0.7294      2.00000
     29      -0.4593      2.00000
     30      -0.4110      2.00000
     31       2.0288      0.00000
     32       2.3137      0.00000
     33       2.5892      0.00000
     34       2.8645      0.00000
     35       3.0147      0.00000
     36       3.0666      0.00000
     37       3.3747      0.00000
     38       3.4990      0.00000
     39       3.6091      0.00000
     40       4.3225      0.00000

 k-point     7 :       0.3333    0.0000    0.2500
  band No.  band energies     occupation 
      1     -13.2525      2.00000
      2     -13.1449      2.00000
      3     -13.0903      2.00000
      4     -11.4359      2.00000
      5     -11.3331      2.00000
      6     -11.3003      2.00000
      7      -9.7492      2.00000
      8      -9.5886      2.00000
      9      -9.4793      2.00000
     10      -7.5232      2.00000
     11      -7.4355      2.00000
     12      -7.4150      2.00000
     13      -5.8319      2.00000
     14      -5.6638      2.00000
     15      -5.5307      2.00000
     16      -4.7965      2.00000
     17      -4.7517      2.00000
     18      -4.6766      2.00000
     19      -3.3906      2.00000
     20      -3.3095      2.00000
     21      -3.1762      2.00000
     22      -2.5114      2.00000
     23      -2.3669      2.00000
     24      -2.3625      2.00000
     25      -2.2348      2.00000
     26      -1.8465      2.00000
     27      -1.3290      2.00000
     28      -0.9586      2.00000
     29      -0.6584      2.00000
     30      -0.6228      2.00000
     31       1.7046      0.00000
     32       1.8328      0.00000
     33       2.0279      0.00000
     34       2.5160      0.00000
     35       2.7063      0.00000
     36       2.9625      0.00000
     37       3.1536      0.00000
     38       3.3314      0.00000
     39       3.3734      0.00000
     40       3.8752      0.00000

 k-point     8 :       0.5000    0.0000    0.2500
  band No.  band energies     occupation 
      1     -11.8536      2.00000
      2     -11.8536      2.00000
      3     -11.7612      2.00000
      4     -11.7612      2.00000
      5     -11.7232      2.00000
      6     -11.7232      2.00000
      7      -9.4299      2.00000
      8      -9.4299      2.00000
      9      -9.2717      2.00000
     10      -9.2717      2.00000
     11      -9.1807      2.00000
     12      -9.1807      2.00000
     13      -5.0166      2.00000
     14      -5.0166      2.00000
     15      -4.8266      2.00000
     16      -4.8266      2.00000
     17      -4.6751      2.00000
     18      -4.6751      2.00000
     19      -3.6854      2.00000
     20      -3.6854      2.00000
     21      -3.4407      2.00000
     22      -3.4407      2.00000
     23      -3.3078      2.00000
     24      -3.3078      2.00000
     25      -1.5482      2.00000
     26      -1.5482      2.00000
     27      -1.2043      2.00000
     28      -1.2043      2.00000
     29      -0.9087      2.00000
     30      -0.9087      2.00000
     31       2.0064      0.00000
     32       2.0064      0.00000
     33       2.3094      0.00000
     34       2.3094      0.00000
     35       2.4561      0.00000
     36       2.4561      0.00000
     37       3.1810      0.00000
     38       3.1810      0.00000
     39       3.4051      0.00000
     40       3.4051      0.00000

 k-point     9 :       0.0000    0.0000    0.5000
  band No.  band energies     occupation 
      1     -13.5461      2.00000
      2     -13.5461      2.00000
      3     -13.4758      2.00000
      4     -13.4758      2.00000
      5     -13.4297      2.00000
      6     -13.4297      2.00000
      7      -8.5701      2.00000
      8      -8.5701      2.00000
      9      -8.2533      2.00000
     10      -8.2533      2.00000
     11      -7.9800      2.00000
     12      -7.9800      2.00000
     13      -3.5901      2.00000
     14      -3.5901      2.00000
     15      -2.8270      2.00000
     16      -2.8270      2.00000
     17      -2.4219      2.00000
     18      -2.4219      2.00000
     19      -2.3774      2.00000
     20      -2.3774      2.00000
     21      -2.3324      2.00000
     22      -2.3324      2.00000
     23      -2.0222      2.00000
     24      -2.0222      2.00000
     25      -0.7267      2.00000
     26      -0.7267      2.00000
     27      -0.5185      2.00000
     28      -0.5185      2.00000
     29      -0.4463      2.00000
     30      -0.4463      2.00000
     31       2.1908      0.00000
     32       2.1908      0.00000
     33       2.2348      0.00000
     34       2.2348      0.00000
     35       2.2871      0.00000
     36       2.2871      0.00000
     37       3.4187      0.00000
     38       3.4191      0.00000
     39       3.5657      0.00000
     40       3.6014      0.00000

 k-point    10 :       0.1667    0.0000    0.5000
  band No.  band energies     occupation 
      1     -13.2400      2.00000
      2     -13.2400      2.00000
      3     -13.1700      2.00000
      4     -13.1700      2.00000
      5     -13.1248      2.00000
      6     -13.1248      2.00000
      7      -8.4254      2.00000
      8      -8.4254      2.00000
      9      -8.1347      2.00000
     10      -8.1347      2.00000
     11      -7.8944      2.00000
     12      -7.8944      2.00000
     13      -4.3691      2.00000
     14      -4.3691      2.00000
     15      -4.2626      2.00000
     16      -4.2626      2.00000
     17      -4.1647      2.00000
     18      -4.1647      2.00000
     19      -3.3500      2.00000
     20      -3.3500      2.00000
     21      -2.6365      2.00000
     22      -2.6365      2.00000
     23      -1.9668      2.00000
     24      -1.9668      2.00000
     25      -0.8108      2.00000
     26      -0.8108      2.00000
     27      -0.6436      2.00000
     28      -0.6436      2.00000
     29      -0.4904      2.00000
     30      -0.4904      2.00000
     31       2.8461      0.00000
     32       2.8461      0.00000
     33       2.9843      0.00000
     34       2.9843      0.00000
     35       3.0979      0.00000
     36       3.0979      0.00000
     37       3.5148      0.00000
     38       3.5148      0.00000
     39       3.9758      0.00000
     40       3.9758      0.00000

 k-point    11 :       0.3333    0.0000    0.5000
  band No.  band energies     occupation 
      1     -12.3821      2.00000
      2     -12.3821      2.00000
      3     -12.3141      2.00000
      4     -12.3141      2.00000
      5     -12.2742      2.00000
      6     -12.2742      2.00000
      7      -8.6626      2.00000
      8      -8.6626      2.00000
      9      -8.5126      2.00000
     10      -8.5126      2.00000
     11      -8.4270      2.00000
     12      -8.4270      2.00000
     13      -5.7949      2.00000
     14      -5.7949      2.00000
     15      -5.5434      2.00000
     16      -5.5434      2.00000
     17      -5.3189      2.00000
     18      -5.3189      2.00000
     19      -3.4342      2.00000
     20      -3.4342      2.00000
     21      -3.0674      2.00000
     22      -3.0674      2.00000
     23      -2.7845      2.00000
     24      -2.7845      2.00000
     25      -1.8719      2.00000
     26      -1.8719      2.00000
     27      -1.3261      2.00000
     28      -1.3261      2.00000
     29      -0.8273      2.00000
     30      -0.8273      2.00000
     31       2.6931      0.00000
     32       2.6931      0.00000
     33       3.2800      0.00000
     34       3.2800      0.00000
     35       3.9575      0.00000
     36       3.9577      0.00000
     37       3.9847      0.00000
     38       3.9899      0.00000
     39       4.0923      0.00000
     40       4.1259      0.00000

 k-point    12 :       0.5000    0.0000    0.5000
  band No.  band energies     occupation 
      1     -11.5657      2.00000
      2     -11.5657      2.00000
      3     -11.5092      2.00000
      4     -11.5092      2.00000
      5     -11.5090      2.00000
      6     -11.5090      2.00000
      7      -9.5289      2.00000
      8      -9.5289      2.00000
      9      -9.4650      2.00000
     10      -9.4650      2.00000
     11      -9.4637      2.00000
     12      -9.4637      2.00000
     13      -4.9599      2.00000
     14      -4.9599      2.00000
     15      -4.9451      2.00000
     16      -4.9451      2.00000
     17      -4.6699      2.00000
     18      -4.6699      2.00000
     19      -4.6163      2.00000
     20      -4.6163      2.00000
     21      -4.3743      2.00000
     22      -4.3743      2.00000
     23      -4.3736      2.00000
     24      -4.3736      2.00000
     25      -1.2335      2.00000
     26      -1.2335      2.00000
     27      -1.1790      2.00000
     28      -1.1790      2.00000
     29      -1.0505      2.00000
     30      -1.0505      2.00000
     31       2.6270      0.00000
     32       2.6270      0.00000
     33       2.7596      0.00000
     34       2.7596      0.00000
     35       2.8986      0.00000
     36       2.8986      0.00000
     37       4.8198      0.00000
     38       4.8324      0.00000
     39       4.8662      0.00000
     40       4.8692      0.00000


--------------------------------------------------------------------------------------------------------


 soft charge-density along one line, spin component           1
         0         1         2         3         4         5         6         7         8         9
 total charge-density along one line
 
 pseudopotential strength for first ion, spin component:           1
 29.685  37.030   0.035  -0.033   0.000   0.055  -0.052   0.000
 37.030  46.198   0.044  -0.041   0.000   0.068  -0.064   0.000
  0.035   0.044   6.554   0.006  -0.000  10.135   0.009  -0.000
 -0.033  -0.041   0.006   6.557  -0.000   0.009  10.141  -0.000
  0.000   0.000  -0.000  -0.000   6.562  -0.000  -0.000  10.147
  0.055   0.068  10.135   0.009  -0.000  15.692   0.014  -0.000
 -0.052  -0.064   0.009  10.141  -0.000   0.014  15.701  -0.000
  0.000   0.000  -0.000  -0.000  10.147  -0.000  -0.000  15.711
 total augmentation occupancy for first ion, spin component:           1
  8.308  -4.737   1.853  -1.944   0.000  -0.591   0.650   0.000
 -4.737   3.441  -1.593   1.650   0.000   0.437  -0.477   0.000
  1.853  -1.593   3.130   0.195   0.000  -0.825  -0.162   0.000
 -1.944   1.650   0.195   3.269   0.000  -0.161  -0.923  -0.000
  0.000   0.000   0.000   0.000   3.399   0.000  -0.000  -1.026
 -0.591   0.437  -0.825  -0.161   0.000   0.259   0.069   0.000
  0.650  -0.477  -0.162  -0.923   0.000   0.069   0.298  -0.000
  0.000   0.000   0.000   0.000  -1.026   0.000   0.000   0.339


------------------------ aborting loop because EDIFF is reached ----------------------------------------


 


 total charge     
 
# of ion       s       p       d       tot
------------------------------------------
    1        1.082   1.376   0.000   2.458
    2        1.082   1.376   0.000   2.458
    3        1.084   1.372   0.000   2.455
    4        1.084   1.372   0.000   2.455
    5        1.084   1.371   0.000   2.455
    6        1.084   1.371   0.000   2.455
    7        1.084   1.371   0.000   2.455
    8        1.084   1.371   0.000   2.455
    9        1.084   1.372   0.000   2.455
   10        1.084   1.372   0.000   2.455
   11        1.082   1.376   0.000   2.458
   12        1.082   1.376   0.000   2.458
--------------------------------------------------
tot         13.001  16.475   0.000  29.476
 
    CHARGE:  cpu time    0.0281: real time    0.0281
    FORLOC:  cpu time    0.0012: real time    0.0012
    FORNL :  cpu time    0.1057: real time    0.1057
    STRESS:  cpu time    0.1708: real time    0.1709
    FORCOR:  cpu time    0.0129: real time    0.0133
    FORHAR:  cpu time    0.0040: real time    0.0040
    MIXING:  cpu time    0.0010: real time    0.0010
    OFIELD:  cpu time    0.0000: real time    0.0000

  DFT-D2 method for vdW energy calculation
  -------------------------------------------------------------------

  Parameters of vdW forcefield:
         C6(Jnm^6/mol)     R0(A)
   -----------------------------
   P        7.840          1.705

  IVDW =  10
  VDW_RADIUS =    50.000 A
  VDW_S6 =     0.750
  VDW_SR =     1.000
  VDW_D =    20.000
  LVDW_EWALD = F

  Number of pair interactions contributing to vdW energy:   88382
  Edisp (eV):   -2.17394
    FORVDW:  cpu time    0.0523: real time    0.0533

  FORCE on cell =-STRESS in cart. coord.  units (eV):
  Direction    XX          YY          ZZ          XY          YZ          ZX
  --------------------------------------------------------------------------------------
  Alpha Z    30.28014    30.28014    30.28014
  Ewald   16591.01473-18044.25022 16426.47569    -0.00000     0.00000     0.00000
  Hartree 16898.15354-16770.90001 16840.96870    -0.00000    -0.00000    -0.00000
  E(xc)    -201.43209  -202.69301  -201.62253    -0.00000     0.00000    -0.00000
  Local  -34441.01477 33820.25892-34239.68073    -0.00000     0.00000     0.00000
  n-local   679.82785   678.17075   674.65246    -0.00000    -0.00001     1.46347
  augment  -126.45556  -130.48802  -128.83822     0.00000    -0.00000     0.00000
  Kinetic   570.18101   620.10562   600.02529     0.00000     0.00000     6.08071
  Fock        0.00000     0.00000     0.00000     0.00000     0.00000     0.00000
  vdW        -0.23282    -1.41063    -0.99576    -0.00000    -0.00000     0.00000
  -------------------------------------------------------------------------------------
  Total       0.32204    -0.92646     1.26504     0.00000     0.00000     0.00000
  in kB       1.08216    -3.11317     4.25092     0.00000     0.00000     0.00000
  external pressure =        0.74 kB  Pullay stress =        0.00 kB


 VOLUME and BASIS-vectors are now :
 -----------------------------------------------------------------------------
  energy-cutoff  :      400.00
  volume of cell :      476.80
      direct lattice vectors                 reciprocal lattice vectors
     3.342886000  0.000000000  0.000000000     0.299142717  0.000000000  0.000000000
     0.000000000 32.602409000  0.000000000     0.000000000  0.030672580  0.000000000
     0.000000000  0.000000000  4.374831000     0.000000000  0.000000000  0.228580258

  length of vectors
     3.342886000 32.602409000  4.374831000     0.299142717  0.030672580  0.228580258


 FORCES acting on ions
    electron-ion (+dipol)            ewald-force                    non-local-force                 convergence-correction
 -----------------------------------------------------------------------------------------------
   0.153E-14 0.823E+03 -.291E+02   0.114E-14 -.828E+03 0.342E+02   0.000E+00 0.583E+01 -.517E+01   0.325E-14 0.242E-02 0.292E-03
   0.389E-14 0.823E+03 0.291E+02   -.458E-14 -.828E+03 -.342E+02   0.000E+00 0.583E+01 0.517E+01   -.154E-14 0.242E-02 -.292E-03
   0.244E-14 0.459E+03 0.260E+02   0.181E-14 -.453E+03 -.313E+02   0.000E+00 -.552E+01 0.522E+01   -.613E-14 0.141E-02 0.192E-03
   0.208E-14 0.459E+03 -.260E+02   -.613E-14 -.453E+03 0.313E+02   0.000E+00 -.552E+01 -.522E+01   0.294E-14 0.141E-02 -.192E-03
   0.369E-14 0.183E+03 -.262E+02   0.754E-15 -.189E+03 0.314E+02   -.278E-16 0.546E+01 -.521E+01   0.623E-15 -.139E-02 0.381E-03
   0.224E-14 0.183E+03 0.262E+02   -.638E-14 -.189E+03 -.314E+02   0.000E+00 0.546E+01 0.521E+01   0.375E-15 -.139E-02 -.381E-03
   0.336E-14 -.183E+03 0.262E+02   0.197E-14 0.189E+03 -.314E+02   0.278E-16 -.546E+01 0.521E+01   -.349E-14 0.139E-02 -.381E-03
   -.168E-14 -.183E+03 -.262E+02   -.498E-14 0.189E+03 0.314E+02   0.000E+00 -.546E+01 -.521E+01   -.211E-15 0.139E-02 0.381E-03
   0.841E-16 -.459E+03 -.260E+02   0.911E-15 0.453E+03 0.313E+02   0.000E+00 0.552E+01 -.522E+01   0.369E-14 -.141E-02 -.192E-03
   0.468E-14 -.459E+03 0.260E+02   -.523E-14 0.453E+03 -.313E+02   0.000E+00 0.552E+01 0.522E+01   -.168E-14 -.141E-02 0.192E-03
   -.789E-15 -.823E+03 0.291E+02   0.158E-14 0.828E+03 -.342E+02   0.000E+00 -.583E+01 0.517E+01   -.251E-14 -.242E-02 -.292E-03
   0.434E-14 -.823E+03 -.291E+02   -.679E-14 0.828E+03 0.342E+02   0.000E+00 -.583E+01 -.517E+01   0.405E-15 -.242E-02 0.292E-03
 -----------------------------------------------------------------------------------------------
   0.259E-13 0.456E-11 0.426E-10   -.259E-13 0.000E+00 -.711E-14   0.000E+00 -.888E-15 -.266E-14   -.428E-14 -.280E-11 -.277E-13
 
 
 POSITION                                       TOTAL-FORCE (eV/Angst)
 -----------------------------------------------------------------------------------
      0.00000     10.00001      4.02014        -0.000000      0.079899     -0.036556
      1.67144     10.00001      2.54211        -0.000000      0.079899      0.036556
      0.00000     12.14332      0.35469        -0.000000     -0.074607     -0.023500
      1.67144     12.14332      1.83272         0.000000     -0.074607      0.023500
      1.67144     15.22953      4.02014        -0.000000      0.035764      0.004522
      0.00000     15.22953      2.54211        -0.000000      0.035764     -0.004522
      1.67144     17.37288      0.35469        -0.000000     -0.035764     -0.004522
      0.00000     17.37288      1.83272        -0.000000     -0.035764      0.004522
      0.00000     20.45909      4.02014         0.000000      0.074607      0.023500
      1.67144     20.45909      2.54211        -0.000000      0.074607     -0.023500
      0.00000     22.60240      0.35469         0.000000     -0.079899      0.036556
      1.67144     22.60240      1.83272        -0.000000     -0.079899     -0.036556
 -----------------------------------------------------------------------------------
    total drift:                               -0.000000      0.000000      0.000000


--------------------------------------------------------------------------------------------------------



  FREE ENERGIE OF THE ION-ELECTRON SYSTEM (eV)
  ---------------------------------------------------
  free  energy   TOTEN  =       -66.51145548 eV

  energy  without entropy=      -66.51145541  energy(sigma->0) =      -66.51145545
 


--------------------------------------------------------------------------------------------------------


    POTLOK:  cpu time    0.1072: real time    0.1079


--------------------------------------------------------------------------------------------------------


 writing wavefunctions
     LOOP+:  cpu time   13.8491: real time   13.9062
    4ORBIT:  cpu time    0.0000: real time    0.0000
 


 total charge     
 
# of ion       s       p       d       tot
------------------------------------------
    1        1.082   1.376   0.000   2.458
    2        1.082   1.376   0.000   2.458
    3        1.084   1.372   0.000   2.455
    4        1.084   1.372   0.000   2.455
    5        1.084   1.371   0.000   2.455
    6        1.084   1.371   0.000   2.455
    7        1.084   1.371   0.000   2.455
    8        1.084   1.371   0.000   2.455
    9        1.084   1.372   0.000   2.455
   10        1.084   1.372   0.000   2.455
   11        1.082   1.376   0.000   2.458
   12        1.082   1.376   0.000   2.458
--------------------------------------------------
tot         13.001  16.475   0.000  29.476
 

 total amount of memory used by VASP MPI-rank0    35100. kBytes
=======================================================================

   base      :      30000. kBytes
   nonl-proj :       1067. kBytes
   fftplans  :        792. kBytes
   grid      :       1070. kBytes
   one-center:          6. kBytes
   wavefun   :       2165. kBytes
 
  
  
 General timing and accounting informations for this job:
 ========================================================
  
                  Total CPU time used (sec):       19.294
                            User time (sec):       17.205
                          System time (sec):        2.090
                         Elapsed time (sec):       19.858
  
                   Maximum memory used (kb):      106892.
                   Average memory used (kb):           0.
  
                          Minor page faults:        35753
                          Major page faults:            0
                 Voluntary context switches:         2127
