  12  12   1   0
  0.3973299E+02  0.3342886E-09  0.3260241E-08  0.4374831E-09  0.5000000E-15
  1.000000000000000E-004
  CAR 
 Generic Input                           
      5.58834507    -15.83294992 2000      0.93432786      1.00000000
    -15.833  0.0000E+00  0.0000E+00
    -15.822  0.0000E+00  0.0000E+00
    -15.812  0.0000E+00  0.0000E+00
    -15.801  0.0000E+00  0.0000E+00
    -15.790  0.0000E+00  0.0000E+00
    -15.779  0.0000E+00  0.0000E+00
    -15.769  0.0000E+00  0.0000E+00
    -15.758  0.0000E+00  0.0000E+00
    -15.747  0.0000E+00  0.0000E+00
    -15.737  0.0000E+00  0.0000E+00
    -15.726  0.0000E+00  0.0000E+00
    -15.715  0.0000E+00  0.0000E+00
    -15.704  0.0000E+00  0.0000E+00
    -15.694  0.0000E+00  0.0000E+00
    -15.683  0.0000E+00  0.0000E+00
    -15.672  0.0000E+00  0.0000E+00
    -15.661  0.0000E+00  0.0000E+00
    -15.651  0.0000E+00  0.0000E+00
    -15.640  0.0000E+00  0.0000E+00
    -15.629  0.0000E+00  0.0000E+00
    -15.619  0.0000E+00  0.0000E+00
    -15.608  0.0000E+00  0.0000E+00
    -15.597  0.0000E+00  0.0000E+00
    -15.586  0.0000E+00  0.0000E+00
    -15.576  0.0000E+00  0.0000E+00
    -15.565  0.0000E+00  0.0000E+00
    -15.554  0.0000E+00  0.0000E+00
    -15.544  0.0000E+00  0.0000E+00
    -15.533  0.0000E+00  0.0000E+00
    -15.522  0.0000E+00  0.0000E+00
    -15.511  0.0000E+00  0.0000E+00
    -15.501  0.0000E+00  0.0000E+00
    -15.490  0.0000E+00  0.0000E+00
    -15.479  0.0000E+00  0.0000E+00
    -15.469  0.0000E+00  0.0000E+00
    -15.458  0.0000E+00  0.0000E+00
    -15.447  0.0000E+00  0.0000E+00
    -15.436  0.0000E+00  0.0000E+00
    -15.426  0.0000E+00  0.0000E+00
    -15.415  0.0000E+00  0.0000E+00
    -15.404  0.0000E+00  0.0000E+00
    -15.394  0.0000E+00  0.0000E+00
    -15.383  0.0000E+00  0.0000E+00
    -15.372  0.0000E+00  0.0000E+00
    -15.361  0.0000E+00  0.0000E+00
    -15.351  0.0000E+00  0.0000E+00
    -15.340  0.0000E+00  0.0000E+00
    -15.329  0.0000E+00  0.0000E+00
    -15.319  0.0000E+00  0.0000E+00
    -15.308  0.0000E+00  0.0000E+00
    -15.297  0.0000E+00  0.0000E+00
    -15.286  0.0000E+00  0.0000E+00
    -15.276  0.0000E+00  0.0000E+00
    -15.265  0.0000E+00  0.0000E+00
    -15.254  0.0000E+00  0.0000E+00
    -15.244  0.0000E+00  0.0000E+00
    -15.233  0.0000E+00  0.0000E+00
    -15.222  0.0000E+00  0.0000E+00
    -15.211  0.0000E+00  0.0000E+00
    -15.201  0.0000E+00  0.0000E+00
    -15.190  0.0000E+00  0.0000E+00
    -15.179  0.0000E+00  0.0000E+00
    -15.169  0.0000E+00  0.0000E+00
    -15.158  0.0000E+00  0.0000E+00
    -15.147  0.0000E+00  0.0000E+00
    -15.136  0.0000E+00  0.0000E+00
    -15.126  0.0000E+00  0.0000E+00
    -15.115  0.0000E+00  0.0000E+00
    -15.104  0.0000E+00  0.0000E+00
    -15.094  0.0000E+00  0.0000E+00
    -15.083  0.0000E+00  0.0000E+00
    -15.072  0.0000E+00  0.0000E+00
    -15.061  0.0000E+00  0.0000E+00
    -15.051  0.0000E+00  0.0000E+00
    -15.040  0.0000E+00  0.0000E+00
    -15.029  0.0000E+00  0.0000E+00
    -15.019  0.0000E+00  0.0000E+00
    -15.008  0.0000E+00  0.0000E+00
    -14.997  0.0000E+00  0.0000E+00
    -14.986  0.0000E+00  0.0000E+00
    -14.976  0.0000E+00  0.0000E+00
    -14.965  0.0000E+00  0.0000E+00
    -14.954  0.0000E+00  0.0000E+00
    -14.944  0.0000E+00  0.0000E+00
    -14.933  0.0000E+00  0.0000E+00
    -14.922  0.0000E+00  0.0000E+00
    -14.911  0.3737E-12  0.4005E-14
    -14.901  0.1050E-07  0.1126E-09
    -14.890  0.3150E-04  0.3377E-06
    -14.879  0.1046E-01  0.1124E-03
    -14.869  0.4121E+00  0.4528E-02
    -14.858  0.2161E+01  0.2768E-01
    -14.847  0.1671E+01  0.4559E-01
    -14.836  0.1868E+00  0.4759E-01
    -14.826  0.2685E-02  0.4762E-01
    -14.815  0.4478E-05  0.4762E-01
    -14.804  0.8162E-09  0.4762E-01
    -14.793  0.3330E-13  0.4762E-01
    -14.783  0.8904E-09  0.4762E-01
    -14.772  0.4789E-05  0.4762E-01
    -14.761  0.2816E-02  0.4765E-01
    -14.751  0.1922E+00  0.4971E-01
    -14.740  0.1689E+01  0.6781E-01
    -14.729  0.2148E+01  0.9082E-01
    -14.718  0.4718E+00  0.9588E-01
    -14.708  0.1576E+01  0.1128E+00
    -14.697  0.4860E+01  0.1648E+00
    -14.686  0.2291E+01  0.1894E+00
    -14.676  0.1050E+01  0.2007E+00
    -14.665  0.2450E+01  0.2269E+00
    -14.654  0.9881E+00  0.2375E+00
    -14.643  0.6331E-01  0.2382E+00
    -14.633  0.4627E+00  0.2431E+00
    -14.622  0.3613E+01  0.2818E+00
    -14.611  0.4105E+01  0.3258E+00
    -14.601  0.7600E+00  0.3340E+00
    -14.590  0.1644E+01  0.3516E+00
    -14.579  0.4874E+01  0.4038E+00
    -14.568  0.2172E+01  0.4271E+00
    -14.558  0.1359E+00  0.4286E+00
    -14.547  0.1282E-02  0.4286E+00
    -14.536  0.4950E-01  0.4291E+00
    -14.526  0.1318E+01  0.4432E+00
    -14.515  0.5018E+01  0.4970E+00
    -14.504  0.5434E+01  0.5552E+00
    -14.493  0.4817E+01  0.6068E+00
    -14.483  0.1210E+01  0.6198E+00
    -14.472  0.2762E+01  0.6494E+00
    -14.461  0.9573E+01  0.7520E+00
    -14.451  0.5076E+01  0.8064E+00
    -14.440  0.2040E+01  0.8282E+00
    -14.429  0.4886E+01  0.8806E+00
    -14.418  0.2124E+01  0.9034E+00
    -14.408  0.1296E+00  0.9048E+00
    -14.397  0.9810E-03  0.9048E+00
    -14.386  0.1462E-05  0.9048E+00
    -14.376  0.9409E-03  0.9048E+00
    -14.365  0.1610E+00  0.9065E+00
    -14.354  0.3373E+01  0.9426E+00
    -14.343  0.9770E+01  0.1047E+01
    -14.333  0.4213E+01  0.1092E+01
    -14.322  0.2546E+00  0.1095E+01
    -14.311  0.2777E-02  0.1095E+01
    -14.301  0.1528E+00  0.1097E+01
    -14.290  0.3286E+01  0.1132E+01
    -14.279  0.9755E+01  0.1237E+01
    -14.268  0.4314E+01  0.1283E+01
    -14.258  0.5270E+00  0.1289E+01
    -14.247  0.2894E+01  0.1320E+01
    -14.236  0.4609E+01  0.1369E+01
    -14.226  0.1089E+01  0.1381E+01
    -14.215  0.3470E-01  0.1381E+01
    -14.204  0.1327E-03  0.1381E+01
    -14.193  0.5648E-07  0.1381E+01
    -14.183  0.9242E-09  0.1381E+01
    -14.172  0.5761E-05  0.1381E+01
    -14.161  0.3926E-02  0.1381E+01
    -14.151  0.3089E+00  0.1384E+01
    -14.140  0.3104E+01  0.1418E+01
    -14.129  0.4485E+01  0.1466E+01
    -14.118  0.9583E+00  0.1476E+01
    -14.108  0.3200E-01  0.1476E+01
    -14.097  0.3381E+00  0.1480E+01
    -14.086  0.3216E+01  0.1514E+01
    -14.076  0.4411E+01  0.1562E+01
    -14.065  0.8937E+00  0.1571E+01
    -14.054  0.2419E-01  0.1571E+01
    -14.043  0.1806E-03  0.1571E+01
    -14.033  0.3634E-01  0.1572E+01
    -14.022  0.1523E+01  0.1588E+01
    -14.011  0.8462E+01  0.1679E+01
    -14.001  0.6920E+01  0.1753E+01
    -13.990  0.8203E+00  0.1762E+01
    -13.979  0.1255E-01  0.1762E+01
    -13.968  0.2233E-04  0.1762E+01
    -13.958  0.3126E-07  0.1762E+01
    -13.947  0.7605E-04  0.1762E+01
    -13.936  0.2401E-01  0.1762E+01
    -13.926  0.9516E+00  0.1772E+01
    -13.915  0.6532E+01  0.1842E+01
    -13.904  0.1241E+02  0.1975E+01
    -13.893  0.6198E+01  0.2042E+01
    -13.883  0.5402E+00  0.2048E+01
    -13.872  0.1132E+00  0.2049E+01
    -13.861  0.2738E+01  0.2078E+01
    -13.850  0.9578E+01  0.2181E+01
    -13.840  0.4981E+01  0.2234E+01
    -13.829  0.3670E+00  0.2238E+01
    -13.818  0.3866E-01  0.2238E+01
    -13.808  0.1098E+01  0.2250E+01
    -13.797  0.4617E+01  0.2300E+01
    -13.786  0.2919E+01  0.2331E+01
    -13.775  0.1917E+01  0.2352E+01
    -13.765  0.8663E+01  0.2444E+01
    -13.754  0.6692E+01  0.2516E+01
    -13.743  0.1770E+01  0.2535E+01
    -13.733  0.4568E+01  0.2584E+01
    -13.722  0.2985E+01  0.2616E+01
    -13.711  0.2805E+00  0.2619E+01
    -13.700  0.3354E-02  0.2619E+01
    -13.690  0.5805E-05  0.2619E+01
    -13.679  0.1518E-02  0.2619E+01
    -13.668  0.2197E+00  0.2621E+01
    -13.658  0.3928E+01  0.2664E+01
    -13.647  0.9797E+01  0.2768E+01
    -13.636  0.3640E+01  0.2807E+01
    -13.625  0.1878E+00  0.2810E+01
    -13.615  0.8963E-02  0.2810E+01
    -13.604  0.6140E+00  0.2816E+01
    -13.593  0.6192E+01  0.2883E+01
    -13.583  0.8980E+01  0.2979E+01
    -13.572  0.1944E+01  0.3000E+01
    -13.561  0.8147E+00  0.3008E+01
    -13.550  0.4228E+01  0.3054E+01
    -13.540  0.3465E+01  0.3091E+01
    -13.529  0.4116E+00  0.3095E+01
    -13.518  0.6313E-02  0.3095E+01
    -13.508  0.1014E-02  0.3095E+01
    -13.497  0.1314E+00  0.3097E+01
    -13.486  0.2138E+01  0.3120E+01
    -13.475  0.4880E+01  0.3172E+01
    -13.465  0.1659E+01  0.3190E+01
    -13.454  0.1078E+00  0.3191E+01
    -13.443  0.1006E+01  0.3202E+01
    -13.433  0.4533E+01  0.3250E+01
    -13.422  0.3025E+01  0.3283E+01
    -13.411  0.2898E+00  0.3286E+01
    -13.400  0.3536E-02  0.3286E+01
    -13.390  0.4975E-05  0.3286E+01
    -13.379  0.1264E-08  0.3286E+01
    -13.368  0.4205E-05  0.3286E+01
    -13.358  0.3869E-02  0.3286E+01
    -13.347  0.4224E+00  0.3290E+01
    -13.336  0.6461E+01  0.3360E+01
    -13.325  0.1764E+02  0.3549E+01
    -13.315  0.9945E+01  0.3655E+01
    -13.304  0.1060E+01  0.3666E+01
    -13.293  0.1686E-01  0.3667E+01
    -13.283  0.1646E-02  0.3667E+01
    -13.272  0.2285E+00  0.3669E+01
    -13.261  0.4003E+01  0.3712E+01
    -13.250  0.9828E+01  0.3817E+01
    -13.240  0.5062E+01  0.3872E+01
    -13.229  0.8664E+01  0.3964E+01
    -13.218  0.9133E+01  0.4062E+01
    -13.208  0.1004E+02  0.4170E+01
    -13.197  0.6044E+01  0.4235E+01
    -13.186  0.4361E+01  0.4281E+01
    -13.175  0.9807E+01  0.4386E+01
    -13.165  0.3732E+01  0.4426E+01
    -13.154  0.1976E+00  0.4429E+01
    -13.143  0.1289E-02  0.4429E+01
    -13.133  0.9491E-06  0.4429E+01
    -13.122  0.7534E-10  0.4429E+01
    -13.111  0.0000E+00  0.4429E+01
    -13.100  0.0000E+00  0.4429E+01
    -13.090  0.0000E+00  0.4429E+01
    -13.079  0.0000E+00  0.4429E+01
    -13.068  0.0000E+00  0.4429E+01
    -13.058  0.0000E+00  0.4429E+01
    -13.047  0.0000E+00  0.4429E+01
    -13.036  0.0000E+00  0.4429E+01
    -13.025  0.0000E+00  0.4429E+01
    -13.015  0.0000E+00  0.4429E+01
    -13.004  0.0000E+00  0.4429E+01
    -12.993  0.0000E+00  0.4429E+01
    -12.982  0.0000E+00  0.4429E+01
    -12.972  0.0000E+00  0.4429E+01
    -12.961  0.0000E+00  0.4429E+01
    -12.950  0.0000E+00  0.4429E+01
    -12.940  0.0000E+00  0.4429E+01
    -12.929  0.0000E+00  0.4429E+01
    -12.918  0.0000E+00  0.4429E+01
    -12.907  0.0000E+00  0.4429E+01
    -12.897  0.0000E+00  0.4429E+01
    -12.886  0.1675E-12  0.4429E+01
    -12.875  0.6305E-08  0.4429E+01
    -12.865  0.2525E-04  0.4429E+01
    -12.854  0.1112E-01  0.4429E+01
    -12.843  0.5747E+00  0.4435E+01
    -12.832  0.3888E+01  0.4477E+01
    -12.822  0.3847E+01  0.4518E+01
    -12.811  0.5561E+00  0.4524E+01
    -12.800  0.2134E-01  0.4524E+01
    -12.790  0.5661E+00  0.4530E+01
    -12.779  0.3870E+01  0.4571E+01
    -12.768  0.3995E+01  0.4614E+01
    -12.757  0.2818E+01  0.4644E+01
    -12.747  0.7120E+01  0.4721E+01
    -12.736  0.6547E+01  0.4791E+01
    -12.725  0.1663E+01  0.4809E+01
    -12.715  0.7139E-01  0.4810E+01
    -12.704  0.2208E-02  0.4810E+01
    -12.693  0.2486E+00  0.4812E+01
    -12.682  0.4343E+01  0.4859E+01
    -12.672  0.1232E+02  0.4991E+01
    -12.661  0.8906E+01  0.5086E+01
    -12.650  0.8037E+01  0.5172E+01
    -12.640  0.8803E+01  0.5267E+01
    -12.629  0.1816E+01  0.5286E+01
    -12.618  0.3510E+01  0.5324E+01
    -12.607  0.1995E+02  0.5538E+01
    -12.597  0.1824E+02  0.5733E+01
    -12.586  0.2674E+01  0.5762E+01
    -12.575  0.1630E+01  0.5779E+01
    -12.565  0.8553E+01  0.5871E+01
    -12.554  0.7613E+01  0.5952E+01
    -12.543  0.7919E+01  0.6037E+01
    -12.532  0.1360E+02  0.6183E+01
    -12.522  0.1705E+02  0.6366E+01
    -12.511  0.1237E+02  0.6498E+01
    -12.500  0.3065E+01  0.6531E+01
    -12.490  0.6738E+01  0.6603E+01
    -12.479  0.8733E+01  0.6697E+01
    -12.468  0.3305E+01  0.6732E+01
    -12.457  0.4920E+01  0.6785E+01
    -12.447  0.2150E+01  0.6808E+01
    -12.436  0.1330E+00  0.6810E+01
    -12.425  0.1021E-02  0.6810E+01
    -12.415  0.1556E-05  0.6810E+01
    -12.404  0.6848E-03  0.6810E+01
    -12.393  0.8016E-01  0.6810E+01
    -12.382  0.1172E+01  0.6823E+01
    -12.372  0.2418E+01  0.6849E+01
    -12.361  0.7419E+00  0.6857E+01
    -12.350  0.3124E-01  0.6857E+01
    -12.340  0.1601E-03  0.6857E+01
    -12.329  0.1082E-06  0.6857E+01
    -12.318  0.6122E-04  0.6857E+01
    -12.307  0.2543E-01  0.6857E+01
    -12.297  0.1243E+01  0.6871E+01
    -12.286  0.8073E+01  0.6957E+01
    -12.275  0.9401E+01  0.7058E+01
    -12.265  0.5927E+01  0.7122E+01
    -12.254  0.1892E+01  0.7142E+01
    -12.243  0.1218E+00  0.7143E+01
    -12.232  0.1145E+01  0.7155E+01
    -12.222  0.7765E+01  0.7239E+01
    -12.211  0.7809E+01  0.7322E+01
    -12.200  0.3809E+01  0.7363E+01
    -12.190  0.9577E+01  0.7466E+01
    -12.179  0.5046E+01  0.7520E+01
    -12.168  0.8464E+00  0.7529E+01
    -12.157  0.6782E+01  0.7602E+01
    -12.147  0.1459E+02  0.7758E+01
    -12.136  0.7951E+01  0.7843E+01
    -12.125  0.7542E+01  0.7924E+01
    -12.114  0.2532E+01  0.7951E+01
    -12.104  0.1222E+00  0.7952E+01
    -12.093  0.7291E-03  0.7952E+01
    -12.082  0.4944E-06  0.7952E+01
    -12.072  0.2553E-06  0.7952E+01
    -12.061  0.4880E-03  0.7952E+01
    -12.050  0.1044E+00  0.7954E+01
    -12.039  0.2704E+01  0.7982E+01
    -12.029  0.9562E+01  0.8085E+01
    -12.018  0.5026E+01  0.8139E+01
    -12.007  0.3745E+00  0.8143E+01
    -11.997  0.5393E-02  0.8143E+01
    -11.986  0.2531E+00  0.8146E+01
    -11.975  0.4204E+01  0.8191E+01
    -11.964  0.9966E+01  0.8297E+01
    -11.954  0.5081E+01  0.8352E+01
    -11.943  0.2305E+01  0.8377E+01
    -11.932  0.6281E+00  0.8383E+01
    -11.922  0.4036E+01  0.8427E+01
    -11.911  0.1095E+02  0.8544E+01
    -11.900  0.1495E+02  0.8704E+01
    -11.889  0.2055E+02  0.8924E+01
    -11.879  0.9776E+01  0.9029E+01
    -11.868  0.1671E+01  0.9047E+01
    -11.857  0.6166E-01  0.9048E+01
    -11.847  0.3053E-03  0.9048E+01
    -11.836  0.2599E-06  0.9048E+01
    -11.825  0.2197E-03  0.9048E+01
    -11.814  0.6108E-01  0.9048E+01
    -11.804  0.2032E+01  0.9070E+01
    -11.793  0.9087E+01  0.9167E+01
    -11.782  0.6016E+01  0.9232E+01
    -11.772  0.5715E+00  0.9238E+01
    -11.761  0.9094E-02  0.9238E+01
    -11.750  0.2773E+00  0.9241E+01
    -11.739  0.4385E+01  0.9288E+01
    -11.729  0.9782E+01  0.9393E+01
    -11.718  0.5133E+01  0.9448E+01
    -11.707  0.1213E+02  0.9578E+01
    -11.697  0.1116E+02  0.9698E+01
    -11.686  0.1537E+01  0.9714E+01
    -11.675  0.2808E-01  0.9714E+01
    -11.664  0.6126E-04  0.9714E+01
    -11.654  0.1499E-07  0.9714E+01
    -11.643  0.3971E-12  0.9714E+01
    -11.632  0.0000E+00  0.9714E+01
    -11.622  0.0000E+00  0.9714E+01
    -11.611  0.0000E+00  0.9714E+01
    -11.600  0.0000E+00  0.9714E+01
    -11.589  0.0000E+00  0.9714E+01
    -11.579  0.3155E-11  0.9714E+01
    -11.568  0.7644E-07  0.9714E+01
    -11.557  0.1979E-03  0.9714E+01
    -11.547  0.5690E-01  0.9715E+01
    -11.536  0.1955E+01  0.9736E+01
    -11.525  0.9010E+01  0.9832E+01
    -11.514  0.6144E+01  0.9898E+01
    -11.504  0.6020E+00  0.9905E+01
    -11.493  0.7526E-02  0.9905E+01
    -11.482  0.1086E-04  0.9905E+01
    -11.472  0.1707E-08  0.9905E+01
    -11.461  0.2043E-11  0.9905E+01
    -11.450  0.5341E-07  0.9905E+01
    -11.439  0.1510E-03  0.9905E+01
    -11.429  0.4734E-01  0.9905E+01
    -11.418  0.1768E+01  0.9924E+01
    -11.407  0.8980E+01  0.1002E+02
    -11.397  0.8956E+01  0.1012E+02
    -11.386  0.5477E+01  0.1018E+02
    -11.375  0.1403E+01  0.1019E+02
    -11.364  0.1257E+01  0.1020E+02
    -11.354  0.1040E+02  0.1032E+02
    -11.343  0.2250E+02  0.1056E+02
    -11.332  0.1622E+02  0.1073E+02
    -11.322  0.2912E+01  0.1076E+02
    -11.311  0.1427E+01  0.1078E+02
    -11.300  0.1043E+02  0.1089E+02
    -11.289  0.1249E+02  0.1102E+02
    -11.279  0.2319E+01  0.1105E+02
    -11.268  0.6061E+00  0.1105E+02
    -11.257  0.5908E+01  0.1112E+02
    -11.246  0.9150E+01  0.1121E+02
    -11.236  0.2100E+01  0.1124E+02
    -11.225  0.2659E+00  0.1124E+02
    -11.214  0.4229E+01  0.1129E+02
    -11.204  0.1367E+02  0.1143E+02
    -11.193  0.7856E+01  0.1152E+02
    -11.182  0.3225E+01  0.1155E+02
    -11.171  0.9893E+01  0.1166E+02
    -11.161  0.9673E+01  0.1176E+02
    -11.150  0.8666E+01  0.1185E+02
    -11.139  0.4315E+01  0.1190E+02
    -11.129  0.4788E+00  0.1190E+02
    -11.118  0.7743E-02  0.1190E+02
    -11.107  0.1495E-04  0.1190E+02
    -11.096  0.3175E-08  0.1190E+02
    -11.086  0.7154E-13  0.1190E+02
    -11.075  0.0000E+00  0.1190E+02
    -11.064  0.0000E+00  0.1190E+02
    -11.054  0.0000E+00  0.1190E+02
    -11.043  0.0000E+00  0.1190E+02
    -11.032  0.1973E-14  0.1190E+02
    -11.021  0.1618E-09  0.1190E+02
    -11.011  0.1489E-05  0.1190E+02
    -11.000  0.1485E-02  0.1190E+02
    -10.989  0.1687E+00  0.1191E+02
    -10.979  0.2399E+01  0.1193E+02
    -10.968  0.4819E+01  0.1198E+02
    -10.957  0.1440E+01  0.1200E+02
    -10.946  0.5894E-01  0.1200E+02
    -10.936  0.2930E-03  0.1200E+02
    -10.925  0.1633E-06  0.1200E+02
    -10.914  0.9769E-11  0.1200E+02
    -10.904  0.0000E+00  0.1200E+02
    -10.893  0.0000E+00  0.1200E+02
    -10.882  0.0000E+00  0.1200E+02
    -10.871  0.0000E+00  0.1200E+02
    -10.861  0.0000E+00  0.1200E+02
    -10.850  0.0000E+00  0.1200E+02
    -10.839  0.0000E+00  0.1200E+02
    -10.829  0.0000E+00  0.1200E+02
    -10.818  0.0000E+00  0.1200E+02
    -10.807  0.0000E+00  0.1200E+02
    -10.796  0.0000E+00  0.1200E+02
    -10.786  0.0000E+00  0.1200E+02
    -10.775  0.0000E+00  0.1200E+02
    -10.764  0.0000E+00  0.1200E+02
    -10.754  0.0000E+00  0.1200E+02
    -10.743  0.0000E+00  0.1200E+02
    -10.732  0.0000E+00  0.1200E+02
    -10.721  0.0000E+00  0.1200E+02
    -10.711  0.0000E+00  0.1200E+02
    -10.700  0.0000E+00  0.1200E+02
    -10.689  0.0000E+00  0.1200E+02
    -10.679  0.0000E+00  0.1200E+02
    -10.668  0.0000E+00  0.1200E+02
    -10.657  0.0000E+00  0.1200E+02
    -10.646  0.0000E+00  0.1200E+02
    -10.636  0.0000E+00  0.1200E+02
    -10.625  0.0000E+00  0.1200E+02
    -10.614  0.0000E+00  0.1200E+02
    -10.604  0.0000E+00  0.1200E+02
    -10.593  0.0000E+00  0.1200E+02
    -10.582  0.0000E+00  0.1200E+02
    -10.571  0.0000E+00  0.1200E+02
    -10.561  0.0000E+00  0.1200E+02
    -10.550  0.0000E+00  0.1200E+02
    -10.539  0.0000E+00  0.1200E+02
    -10.529  0.0000E+00  0.1200E+02
    -10.518  0.0000E+00  0.1200E+02
    -10.507  0.0000E+00  0.1200E+02
    -10.496  0.0000E+00  0.1200E+02
    -10.486  0.0000E+00  0.1200E+02
    -10.475  0.0000E+00  0.1200E+02
    -10.464  0.0000E+00  0.1200E+02
    -10.454  0.0000E+00  0.1200E+02
    -10.443  0.0000E+00  0.1200E+02
    -10.432  0.0000E+00  0.1200E+02
    -10.421  0.0000E+00  0.1200E+02
    -10.411  0.0000E+00  0.1200E+02
    -10.400  0.0000E+00  0.1200E+02
    -10.389  0.0000E+00  0.1200E+02
    -10.379  0.0000E+00  0.1200E+02
    -10.368  0.0000E+00  0.1200E+02
    -10.357  0.0000E+00  0.1200E+02
    -10.346  0.0000E+00  0.1200E+02
    -10.336  0.0000E+00  0.1200E+02
    -10.325  0.0000E+00  0.1200E+02
    -10.314  0.0000E+00  0.1200E+02
    -10.303  0.0000E+00  0.1200E+02
    -10.293  0.0000E+00  0.1200E+02
    -10.282  0.0000E+00  0.1200E+02
    -10.271  0.0000E+00  0.1200E+02
    -10.261  0.0000E+00  0.1200E+02
    -10.250  0.0000E+00  0.1200E+02
    -10.239  0.0000E+00  0.1200E+02
    -10.228  0.2199E-10  0.1200E+02
    -10.218  0.3104E-06  0.1200E+02
    -10.207  0.4714E-03  0.1200E+02
    -10.196  0.8061E-01  0.1200E+02
    -10.186  0.1688E+01  0.1202E+02
    -10.175  0.4885E+01  0.1207E+02
    -10.164  0.2105E+01  0.1209E+02
    -10.153  0.1272E+00  0.1210E+02
    -10.143  0.9524E-03  0.1210E+02
    -10.132  0.2850E-05  0.1210E+02
    -10.121  0.2256E-02  0.1210E+02
    -10.111  0.2834E+00  0.1210E+02
    -10.100  0.4430E+01  0.1215E+02
    -10.089  0.9732E+01  0.1225E+02
    -10.078  0.3183E+01  0.1228E+02
    -10.068  0.1434E+00  0.1229E+02
    -10.057  0.7889E-03  0.1229E+02
    -10.046  0.4877E-06  0.1229E+02
    -10.036  0.3241E-10  0.1229E+02
    -10.025  0.0000E+00  0.1229E+02
    -10.014  0.0000E+00  0.1229E+02
    -10.003  0.4934E-15  0.1229E+02
     -9.993  0.4011E-10  0.1229E+02
     -9.982  0.4985E-06  0.1229E+02
     -9.971  0.6681E-03  0.1229E+02
     -9.961  0.1012E+00  0.1229E+02
     -9.950  0.1887E+01  0.1231E+02
     -9.939  0.4900E+01  0.1236E+02
     -9.928  0.1895E+01  0.1238E+02
     -9.918  0.1021E+00  0.1238E+02
     -9.907  0.3754E-01  0.1238E+02
     -9.896  0.1535E+01  0.1240E+02
     -9.886  0.8481E+01  0.1249E+02
     -9.875  0.6896E+01  0.1256E+02
     -9.864  0.8126E+00  0.1257E+02
     -9.853  0.1236E-01  0.1257E+02
     -9.843  0.2522E-04  0.1257E+02
     -9.832  0.3252E-02  0.1257E+02
     -9.821  0.3574E+00  0.1258E+02
     -9.811  0.4923E+01  0.1263E+02
     -9.800  0.9599E+01  0.1273E+02
     -9.789  0.2919E+01  0.1276E+02
     -9.778  0.2303E+01  0.1279E+02
     -9.768  0.5582E+01  0.1285E+02
     -9.757  0.6245E+01  0.1291E+02
     -9.746  0.9276E+01  0.1301E+02
     -9.736  0.9752E+01  0.1312E+02
     -9.725  0.2289E+01  0.1314E+02
     -9.714  0.7893E-01  0.1314E+02
     -9.703  0.2744E+00  0.1315E+02
     -9.693  0.3111E+01  0.1318E+02
     -9.682  0.6918E+01  0.1325E+02
     -9.671  0.6289E+01  0.1332E+02
     -9.661  0.6700E+01  0.1339E+02
     -9.650  0.9571E+01  0.1350E+02
     -9.639  0.3016E+01  0.1353E+02
     -9.628  0.5406E+01  0.1359E+02
     -9.618  0.9450E+01  0.1369E+02
     -9.607  0.2497E+01  0.1371E+02
     -9.596  0.9410E-01  0.1371E+02
     -9.586  0.4322E+00  0.1372E+02
     -9.575  0.5349E+01  0.1378E+02
     -9.564  0.9432E+01  0.1388E+02
     -9.553  0.2469E+01  0.1390E+02
     -9.543  0.8810E-01  0.1390E+02
     -9.532  0.7418E-01  0.1391E+02
     -9.521  0.2251E+01  0.1393E+02
     -9.511  0.9278E+01  0.1403E+02
     -9.500  0.5671E+01  0.1409E+02
     -9.489  0.4953E+00  0.1410E+02
     -9.478  0.5571E-02  0.1410E+02
     -9.468  0.3323E-01  0.1410E+02
     -9.457  0.1447E+01  0.1411E+02
     -9.446  0.8342E+01  0.1420E+02
     -9.435  0.7069E+01  0.1428E+02
     -9.425  0.8695E+00  0.1429E+02
     -9.414  0.1384E-01  0.1429E+02
     -9.403  0.2565E-04  0.1429E+02
     -9.393  0.5207E-08  0.1429E+02
     -9.382  0.1125E-12  0.1429E+02
     -9.371  0.0000E+00  0.1429E+02
     -9.360  0.0000E+00  0.1429E+02
     -9.350  0.3650E-11  0.1429E+02
     -9.339  0.8589E-07  0.1429E+02
     -9.328  0.2160E-03  0.1429E+02
     -9.318  0.6038E-01  0.1429E+02
     -9.307  0.2019E+01  0.1431E+02
     -9.296  0.9075E+01  0.1441E+02
     -9.285  0.6037E+01  0.1447E+02
     -9.275  0.5764E+00  0.1448E+02
     -9.264  0.7010E-02  0.1448E+02
     -9.253  0.9937E-05  0.1448E+02
     -9.243  0.2586E-03  0.1448E+02
     -9.232  0.6821E-01  0.1448E+02
     -9.221  0.2166E+01  0.1450E+02
     -9.210  0.9875E+01  0.1461E+02
     -9.200  0.1238E+02  0.1474E+02
     -9.189  0.1248E+02  0.1487E+02
     -9.178  0.1152E+02  0.1500E+02
     -9.168  0.4553E+01  0.1504E+02
     -9.157  0.2940E+00  0.1505E+02
     -9.146  0.2388E-02  0.1505E+02
     -9.135  0.2206E-05  0.1505E+02
     -9.125  0.2205E-09  0.1505E+02
     -9.114  0.1973E-14  0.1505E+02
     -9.103  0.0000E+00  0.1505E+02
     -9.093  0.4990E-12  0.1505E+02
     -9.082  0.1519E-07  0.1505E+02
     -9.071  0.4929E-04  0.1505E+02
     -9.060  0.1767E-01  0.1505E+02
     -9.050  0.7496E+00  0.1506E+02
     -9.039  0.4217E+01  0.1510E+02
     -9.028  0.3927E+01  0.1514E+02
     -9.018  0.5827E+01  0.1521E+02
     -9.007  0.9460E+01  0.1531E+02
     -8.996  0.4209E+01  0.1535E+02
     -8.985  0.8901E+01  0.1545E+02
     -8.975  0.6441E+01  0.1552E+02
     -8.964  0.6815E+00  0.1552E+02
     -8.953  0.3523E+00  0.1553E+02
     -8.943  0.4834E+01  0.1558E+02
     -8.932  0.9627E+01  0.1568E+02
     -8.921  0.2852E+01  0.1571E+02
     -8.910  0.1175E+00  0.1571E+02
     -8.900  0.2512E+00  0.1572E+02
     -8.889  0.4182E+01  0.1576E+02
     -8.878  0.9778E+01  0.1587E+02
     -8.868  0.3784E+01  0.1591E+02
     -8.857  0.5281E+01  0.1596E+02
     -8.846  0.1083E+02  0.1608E+02
     -8.835  0.7425E+01  0.1616E+02
     -8.825  0.3711E+01  0.1620E+02
     -8.814  0.1181E+02  0.1633E+02
     -8.803  0.2404E+02  0.1658E+02
     -8.793  0.1406E+02  0.1673E+02
     -8.782  0.2753E+01  0.1676E+02
     -8.771  0.4262E+01  0.1681E+02
     -8.760  0.1241E+02  0.1694E+02
     -8.750  0.1106E+02  0.1706E+02
     -8.739  0.8629E+01  0.1715E+02
     -8.728  0.6701E+01  0.1722E+02
     -8.718  0.8186E+01  0.1731E+02
     -8.707  0.1463E+02  0.1747E+02
     -8.696  0.8331E+01  0.1756E+02
     -8.685  0.1002E+02  0.1767E+02
     -8.675  0.4236E+01  0.1771E+02
     -8.664  0.2573E+00  0.1771E+02
     -8.653  0.1941E-02  0.1771E+02
     -8.643  0.5528E-03  0.1771E+02
     -8.632  0.9583E-01  0.1772E+02
     -8.621  0.2136E+01  0.1774E+02
     -8.610  0.7024E+01  0.1781E+02
     -8.600  0.4052E+01  0.1786E+02
     -8.589  0.5796E+01  0.1792E+02
     -8.578  0.1948E+02  0.1813E+02
     -8.567  0.1634E+02  0.1830E+02
     -8.557  0.2774E+01  0.1833E+02
     -8.546  0.1291E+00  0.1833E+02
     -8.535  0.1726E+01  0.1835E+02
     -8.525  0.6986E+01  0.1843E+02
     -8.514  0.4235E+01  0.1847E+02
     -8.503  0.1180E+01  0.1849E+02
     -8.492  0.2442E+01  0.1851E+02
     -8.482  0.1147E+01  0.1852E+02
     -8.471  0.2954E+01  0.1856E+02
     -8.460  0.1664E+02  0.1873E+02
     -8.450  0.1417E+02  0.1889E+02
     -8.439  0.1761E+01  0.1890E+02
     -8.428  0.2858E-01  0.1890E+02
     -8.417  0.2400E-01  0.1891E+02
     -8.407  0.1200E+01  0.1892E+02
     -8.396  0.7884E+01  0.1900E+02
     -8.385  0.7584E+01  0.1908E+02
     -8.375  0.1065E+01  0.1910E+02
     -8.364  0.1950E-01  0.1910E+02
     -8.353  0.4183E-04  0.1910E+02
     -8.342  0.3392E-05  0.1910E+02
     -8.332  0.2683E-02  0.1910E+02
     -8.321  0.2444E+00  0.1910E+02
     -8.310  0.2820E+01  0.1913E+02
     -8.300  0.4724E+01  0.1918E+02
     -8.289  0.3435E+01  0.1922E+02
     -8.278  0.9534E+01  0.1932E+02
     -8.267  0.9879E+01  0.1942E+02
     -8.257  0.1477E+02  0.1958E+02
     -8.246  0.7350E+01  0.1966E+02
     -8.235  0.5569E+00  0.1967E+02
     -8.225  0.5568E-02  0.1967E+02
     -8.214  0.6694E-05  0.1967E+02
     -8.203  0.8744E-07  0.1967E+02
     -8.192  0.2172E-03  0.1967E+02
     -8.182  0.6063E-01  0.1967E+02
     -8.171  0.2032E+01  0.1969E+02
     -8.160  0.9593E+01  0.1979E+02
     -8.150  0.9789E+01  0.1990E+02
     -8.139  0.5309E+01  0.1995E+02
     -8.128  0.7325E+01  0.2003E+02
     -8.117  0.8645E+01  0.2012E+02
     -8.107  0.1640E+01  0.2014E+02
     -8.096  0.4145E-01  0.2014E+02
     -8.085  0.1244E-03  0.2014E+02
     -8.075  0.4129E-07  0.2014E+02
     -8.064  0.1462E-11  0.2014E+02
     -8.053  0.0000E+00  0.2014E+02
     -8.042  0.4440E-14  0.2014E+02
     -8.032  0.3299E-09  0.2014E+02
     -8.021  0.2596E-05  0.2014E+02
     -8.010  0.2218E-02  0.2014E+02
     -8.000  0.2171E+00  0.2015E+02
     -7.989  0.2681E+01  0.2017E+02
     -7.978  0.4713E+01  0.2022E+02
     -7.967  0.1230E+01  0.2024E+02
     -7.957  0.4359E-01  0.2024E+02
     -7.946  0.1976E-03  0.2024E+02
     -7.935  0.7747E-02  0.2024E+02
     -7.925  0.6127E+00  0.2024E+02
     -7.914  0.6187E+01  0.2031E+02
     -7.903  0.8983E+01  0.2041E+02
     -7.892  0.1929E+01  0.2043E+02
     -7.882  0.5554E-01  0.2043E+02
     -7.871  0.1910E-03  0.2043E+02
     -7.860  0.7290E-07  0.2043E+02
     -7.850  0.2973E-11  0.2043E+02
     -7.839  0.0000E+00  0.2043E+02
     -7.828  0.0000E+00  0.2043E+02
     -7.817  0.0000E+00  0.2043E+02
     -7.807  0.0000E+00  0.2043E+02
     -7.796  0.0000E+00  0.2043E+02
     -7.785  0.0000E+00  0.2043E+02
     -7.775  0.0000E+00  0.2043E+02
     -7.764  0.0000E+00  0.2043E+02
     -7.753  0.0000E+00  0.2043E+02
     -7.742  0.0000E+00  0.2043E+02
     -7.732  0.0000E+00  0.2043E+02
     -7.721  0.0000E+00  0.2043E+02
     -7.710  0.0000E+00  0.2043E+02
     -7.700  0.0000E+00  0.2043E+02
     -7.689  0.0000E+00  0.2043E+02
     -7.678  0.0000E+00  0.2043E+02
     -7.667  0.0000E+00  0.2043E+02
     -7.657  0.0000E+00  0.2043E+02
     -7.646  0.0000E+00  0.2043E+02
     -7.635  0.0000E+00  0.2043E+02
     -7.624  0.0000E+00  0.2043E+02
     -7.614  0.6562E-13  0.2043E+02
     -7.603  0.2954E-08  0.2043E+02
     -7.592  0.1413E-04  0.2043E+02
     -7.582  0.7409E-02  0.2043E+02
     -7.571  0.4528E+00  0.2043E+02
     -7.560  0.3586E+01  0.2047E+02
     -7.549  0.4131E+01  0.2052E+02
     -7.539  0.1080E+01  0.2053E+02
     -7.528  0.5085E+01  0.2058E+02
     -7.517  0.9546E+01  0.2068E+02
     -7.507  0.2671E+01  0.2071E+02
     -7.496  0.1020E+00  0.2071E+02
     -7.485  0.4714E-03  0.2071E+02
     -7.474  0.3725E-03  0.2071E+02
     -7.464  0.8712E-01  0.2072E+02
     -7.453  0.2459E+01  0.2074E+02
     -7.442  0.9426E+01  0.2084E+02
     -7.432  0.5364E+01  0.2090E+02
     -7.421  0.4347E+00  0.2090E+02
     -7.410  0.4069E-01  0.2091E+02
     -7.399  0.1521E+01  0.2092E+02
     -7.389  0.8459E+01  0.2101E+02
     -7.378  0.6925E+01  0.2109E+02
     -7.367  0.8217E+00  0.2110E+02
     -7.357  0.1291E-01  0.2110E+02
     -7.346  0.7829E-01  0.2110E+02
     -7.335  0.2323E+01  0.2112E+02
     -7.324  0.9333E+01  0.2122E+02
     -7.314  0.5563E+01  0.2128E+02
     -7.303  0.4732E+00  0.2129E+02
     -7.292  0.5092E-02  0.2129E+02
     -7.282  0.6876E-05  0.2129E+02
     -7.271  0.7536E-03  0.2129E+02
     -7.260  0.1094E+00  0.2129E+02
     -7.249  0.1960E+01  0.2131E+02
     -7.239  0.4899E+01  0.2136E+02
     -7.228  0.1824E+01  0.2138E+02
     -7.217  0.9430E-01  0.2138E+02
     -7.207  0.5996E-03  0.2138E+02
     -7.196  0.6230E-06  0.2138E+02
     -7.185  0.3958E-03  0.2138E+02
     -7.174  0.9076E-01  0.2138E+02
     -7.164  0.2513E+01  0.2141E+02
     -7.153  0.9459E+01  0.2151E+02
     -7.142  0.5288E+01  0.2157E+02
     -7.132  0.4204E+00  0.2157E+02
     -7.121  0.4211E-02  0.2157E+02
     -7.110  0.4829E-05  0.2157E+02
     -7.099  0.6012E-09  0.2157E+02
     -7.089  0.7894E-14  0.2157E+02
     -7.078  0.0000E+00  0.2157E+02
     -7.067  0.0000E+00  0.2157E+02
     -7.057  0.0000E+00  0.2157E+02
     -7.046  0.8298E-12  0.2157E+02
     -7.035  0.2285E-07  0.2157E+02
     -7.024  0.6715E-04  0.2157E+02
     -7.014  0.2184E-01  0.2157E+02
     -7.003  0.8444E+00  0.2158E+02
     -6.992  0.4349E+01  0.2163E+02