       N       E                     dE             d eps       ncg     rms          rms(c)
DAV:   1     0.338713506471E+03    0.33871E+03   -0.19250E+04  2560   0.953E+02
DAV:   2    -0.267967815451E+02   -0.36551E+03   -0.35518E+03  3648   0.201E+02
DAV:   3    -0.634563640235E+02   -0.36660E+02   -0.36123E+02  3080   0.674E+01
DAV:   4    -0.648024269771E+02   -0.13461E+01   -0.13390E+01  3840   0.144E+01
DAV:   5    -0.648361609473E+02   -0.33734E-01   -0.33711E-01  3792   0.216E+00    0.175E+01
DAV:   6    -0.645135623763E+02    0.32260E+00   -0.19684E-01  3336   0.164E+00    0.104E+01
DAV:   7    -0.643662861036E+02    0.14728E+00   -0.35885E-01  3240   0.226E+00    0.442E-01
DAV:   8    -0.643660426516E+02    0.24345E-03   -0.31925E-02  3296   0.727E-01    0.233E-01
DAV:   9    -0.643660197301E+02    0.22922E-04   -0.17603E-03  3752   0.172E-01    0.201E-01
DAV:  10    -0.643658015838E+02    0.21815E-03   -0.35800E-04  3208   0.736E-02    0.147E-01
DAV:  11    -0.643655595687E+02    0.24202E-03   -0.40654E-04  3240   0.744E-02    0.552E-02
DAV:  12    -0.643656345764E+02   -0.75008E-04   -0.67690E-05  3264   0.317E-02    0.158E-02
DAV:  13    -0.643658418992E+02   -0.20732E-03   -0.76518E-05  3008   0.324E-02    0.438E-02
DAV:  14    -0.643659819126E+02   -0.14001E-03   -0.20741E-05  2560   0.162E-02    0.391E-02
DAV:  15    -0.643659982801E+02   -0.16367E-04   -0.19989E-06  2040   0.628E-03    0.327E-02
DAV:  16    -0.643662255705E+02   -0.22729E-03   -0.16965E-05  2512   0.145E-02    0.198E-02
DAV:  17    -0.643662937532E+02   -0.68183E-04   -0.72786E-06  2368   0.834E-03    0.232E-02
DAV:  18    -0.643662941508E+02   -0.39761E-06   -0.54801E-07  2024   0.305E-03
   1 F= -.66540234E+02 E0= -.66540234E+02  d E =-.250848E-07
