<?xml version="1.0" encoding="ISO-8859-1"?>
<modeling>
 <generator>
  <i name="program" type="string">vasp </i>
  <i name="version" type="string">5.4.4.18Apr17-6-g9f103f2a35  </i>
  <i name="subversion" type="string">(build Jun 20 2017 18:00:50) complex            parallel </i>
  <i name="platform" type="string">LinuxIFC </i>
  <i name="date" type="string">2018 03 16 </i>
  <i name="time" type="string">15:59:22 </i>
 </generator>
 <incar>
  <i type="string" name="SYSTEM"> Generic Input</i>
  <i type="int" name="ISTART">     1</i>
  <i type="string" name="PREC">normal    ! precision level</i>
  <i type="int" name="IALGO">    53</i>
  <i type="string" name="ALGO"> Normal    ! SCF minimisation algorithm</i>
  <i type="int" name="INIWAV">     1</i>
  <i type="int" name="NELM">   200</i>
  <i type="int" name="NELMIN">     2</i>
  <i type="int" name="IBRION">     2</i>
  <i name="EDIFF">      0.00001000</i>
  <i name="EDIFFG">     -0.02000000</i>
  <i type="int" name="NSW">     0</i>
  <i type="int" name="ISIF">     3</i>
  <i type="int" name="IWAVPR">    11</i>
  <i type="int" name="NBLOCK">     1</i>
  <i type="int" name="KBLOCK">    40</i>
  <i name="ENCUT">    700.00000000</i>
  <i type="int" name="NEDOS">  2000</i>
  <i type="int" name="ISMEAR">     0</i>
  <i name="SIGMA">      0.01000000</i>
  <i type="int" name="NWRITE">     2</i>
  <i type="logical" name="LVHAR"> T  </i>
  <i type="int" name="LORBIT">    11</i>
  <i type="logical" name="LASPH"> T  </i>
  <i type="int" name="ICORELEVEL">     1</i>
  <v type="int" name="KPOINT_BSE">    -1     0     0     0</v>
  <i type="int" name="NELM">   200</i>
  <i type="string" name="GGA"> PE        ! PBEsol exchange-correlation</i>
  <i type="logical" name="LASPH"> T  </i>
 </incar>
 <structure name="primitive_cell" >
  <crystal>
   <varray name="basis" >
    <v>       3.34288600       0.00000000       0.00000000 </v>
    <v>       0.00000000      32.60240900       0.00000000 </v>
    <v>       0.00000000       0.00000000       4.37483100 </v>
   </varray>
   <i name="volume">    476.79592902 </i>
   <varray name="rec_basis" >
    <v>       0.29914272       0.00000000       0.00000000 </v>
    <v>       0.00000000       0.03067258       0.00000000 </v>
    <v>       0.00000000       0.00000000       0.22858026 </v>
   </varray>
  </crystal>
  <varray name="positions" >
   <v>       0.00000000       0.30672600      -0.08107600 </v>
   <v>      -0.50000000       0.30672600      -0.41892400 </v>
   <v>       0.00000000       0.37246700       0.08107600 </v>
   <v>      -0.50000000       0.37246700       0.41892400 </v>
   <v>       0.00000000       0.46712900      -0.41892400 </v>
   <v>      -0.50000000       0.46712900      -0.08107600 </v>
   <v>      -0.50000000      -0.46712900       0.08107600 </v>
   <v>       0.00000000      -0.46712900       0.41892400 </v>
   <v>       0.00000000      -0.37246700      -0.08107600 </v>
   <v>      -0.50000000      -0.37246700      -0.41892400 </v>
   <v>       0.00000000      -0.30672600       0.08107600 </v>
   <v>      -0.50000000      -0.30672600       0.41892400 </v>
  </varray>
 </structure>
 <varray name="primitive_index" >
  <v type="int" >        1 </v>
  <v type="int" >        2 </v>
  <v type="int" >        3 </v>
  <v type="int" >        4 </v>
  <v type="int" >        6 </v>
  <v type="int" >        5 </v>
  <v type="int" >        7 </v>
  <v type="int" >        8 </v>
  <v type="int" >        9 </v>
  <v type="int" >       10 </v>
  <v type="int" >       11 </v>
  <v type="int" >       12 </v>
 </varray>
 <kpoints>
  <generation param="Gamma">
   <v type="int" name="divisions">       6        1        4 </v>
   <v name="usershift">      0.00000000       0.00000000       0.00000000 </v>
   <v name="genvec1">      0.16666667       0.00000000       0.00000000 </v>
   <v name="genvec2">      0.00000000       1.00000000       0.00000000 </v>
   <v name="genvec3">      0.00000000       0.00000000       0.25000000 </v>
   <v name="shift">      0.00000000       0.00000000       0.00000000 </v>
  </generation>
  <varray name="kpointlist" >
   <v>       0.00000000       0.00000000       0.00000000 </v>
   <v>       0.16666667       0.00000000       0.00000000 </v>
   <v>       0.33333333       0.00000000       0.00000000 </v>
   <v>       0.50000000       0.00000000       0.00000000 </v>
   <v>       0.00000000       0.00000000       0.25000000 </v>
   <v>       0.16666667       0.00000000       0.25000000 </v>
   <v>       0.33333333       0.00000000       0.25000000 </v>
   <v>       0.50000000       0.00000000       0.25000000 </v>
   <v>       0.00000000       0.00000000       0.50000000 </v>
   <v>       0.16666667       0.00000000       0.50000000 </v>
   <v>       0.33333333       0.00000000       0.50000000 </v>
   <v>       0.50000000       0.00000000       0.50000000 </v>
  </varray>
  <varray name="weights" >
   <v>       0.04166667 </v>
   <v>       0.08333333 </v>
   <v>       0.08333333 </v>
   <v>       0.04166667 </v>
   <v>       0.08333333 </v>
   <v>       0.16666667 </v>
   <v>       0.16666667 </v>
   <v>       0.08333333 </v>
   <v>       0.04166667 </v>
   <v>       0.08333333 </v>
   <v>       0.08333333 </v>
   <v>       0.04166667 </v>
  </varray>
 </kpoints>
 <parameters>
  <separator name="general" >
   <i type="string" name="SYSTEM">Generic Input</i>
   <i type="logical" name="LCOMPAT"> F  </i>
  </separator>
  <separator name="electronic" >
   <i type="string" name="PREC">normal</i>
   <i name="ENMAX">    700.00000000</i>
   <i name="ENAUG">    342.92400000</i>
   <i name="EDIFF">      0.00001000</i>
   <i type="int" name="IALGO">    38</i>
   <i type="int" name="IWAVPR">    11</i>
   <i type="int" name="NBANDS">    40</i>
   <i name="NELECT">     60.00000000</i>
   <i type="int" name="TURBO">     0</i>
   <i type="int" name="IRESTART">     0</i>
   <i type="int" name="NREBOOT">     0</i>
   <i type="int" name="NMIN">     0</i>
   <i name="EREF">      0.00000000</i>
   <separator name="electronic smearing" >
    <i type="int" name="ISMEAR">     0</i>
    <i name="SIGMA">      0.01000000</i>
    <i name="KSPACING">      0.50000000</i>
    <i type="logical" name="KGAMMA"> T  </i>
   </separator>
   <separator name="electronic projectors" >
    <i type="logical" name="LREAL"> F  </i>
    <v name="ROPT">      0.00000000</v>
    <i type="int" name="LMAXPAW">  -100</i>
    <i type="int" name="LMAXMIX">     2</i>
    <i type="logical" name="NLSPLINE"> F  </i>
   </separator>
   <separator name="electronic startup" >
    <i type="int" name="ISTART">     0</i>
    <i type="int" name="ICHARG">     2</i>
    <i type="int" name="INIWAV">     1</i>
   </separator>
   <separator name="electronic spin" >
    <i type="int" name="ISPIN">     1</i>
    <i type="logical" name="LNONCOLLINEAR"> F  </i>
    <v name="MAGMOM">      1.00000000      1.00000000      1.00000000      1.00000000      1.00000000      1.00000000      1.00000000      1.00000000      1.00000000      1.00000000      1.00000000      1.00000000</v>
    <i name="NUPDOWN">     -1.00000000</i>
    <i type="logical" name="LSORBIT"> F  </i>
    <v name="SAXIS">      0.00000000      0.00000000      1.00000000</v>
    <i type="logical" name="LSPIRAL"> F  </i>
    <v name="QSPIRAL">      0.00000000      0.00000000      0.00000000</v>
    <i type="logical" name="LZEROZ"> F  </i>
   </separator>
   <separator name="electronic exchange-correlation" >
    <i type="logical" name="LASPH"> T  </i>
    <i type="logical" name="LMETAGGA"> F  </i>
   </separator>
   <separator name="electronic convergence" >
    <i type="int" name="NELM">   200</i>
    <i type="int" name="NELMDL">     0</i>
    <i type="int" name="NELMIN">     2</i>
    <i name="ENINI">    700.00000000</i>
    <separator name="electronic convergence detail" >
     <i type="logical" name="LDIAG"> T  </i>
     <i type="logical" name="LSUBROT"> F  </i>
     <i name="WEIMIN">      0.00000000</i>
     <i name="EBREAK">      0.00000006</i>
     <i name="DEPER">      0.30000000</i>
     <i type="int" name="NRMM">     4</i>
     <i name="TIME">      0.40000000</i>
    </separator>
   </separator>
   <separator name="electronic mixer" >
    <i name="AMIX">      0.40000000</i>
    <i name="BMIX">      1.00000000</i>
    <i name="AMIN">      0.10000000</i>
    <i name="AMIX_MAG">      1.60000000</i>
    <i name="BMIX_MAG">      1.00000000</i>
    <separator name="electronic mixer details" >
     <i type="int" name="IMIX">     4</i>
     <i type="logical" name="MIXFIRST"> F  </i>
     <i type="int" name="MAXMIX">   -45</i>
     <i name="WC">    100.00000000</i>
     <i type="int" name="INIMIX">     1</i>
     <i type="int" name="MIXPRE">     1</i>
     <i type="int" name="MREMOVE">     5</i>
    </separator>
   </separator>
   <separator name="electronic dipolcorrection" >
    <i type="logical" name="LDIPOL"> F  </i>
    <i type="logical" name="LMONO"> F  </i>
    <i type="int" name="IDIPOL">     0</i>
    <i name="EPSILON">      1.00000000</i>
    <v name="DIPOL">   -100.00000000   -100.00000000   -100.00000000</v>
    <i name="EFIELD">      0.00000000</i>
   </separator>
  </separator>
  <separator name="grids" >
   <i type="int" name="NGX">    24</i>
   <i type="int" name="NGY">   216</i>
   <i type="int" name="NGZ">    28</i>
   <i type="int" name="NGXF">    48</i>
   <i type="int" name="NGYF">   432</i>
   <i type="int" name="NGZF">    56</i>
   <i type="logical" name="ADDGRID"> F  </i>
  </separator>
  <separator name="ionic" >
   <i type="int" name="NSW">     0</i>
   <i type="int" name="IBRION">    -1</i>
   <i type="int" name="MDALGO">     0</i>
   <i type="int" name="ISIF">     3</i>
   <i name="PSTRESS">      0.00000000</i>
   <i name="EDIFFG">     -0.02000000</i>
   <i type="int" name="NFREE">     1</i>
   <i name="POTIM">      0.50000000</i>
   <i name="SMASS">     -3.00000000</i>
   <i name="SCALEE">      1.00000000</i>
  </separator>
  <separator name="ionic md" >
   <i name="TEBEG">      0.00010000</i>
   <i name="TEEND">      0.00010000</i>
   <i type="int" name="NBLOCK">     1</i>
   <i type="int" name="KBLOCK">     1</i>
   <i type="int" name="NPACO">   256</i>
   <i name="APACO">     16.00000000</i>
  </separator>
  <separator name="symmetry" >
   <i type="int" name="ISYM">     2</i>
   <i name="SYMPREC">      0.00001000</i>
  </separator>
  <separator name="dos" >
   <i type="int" name="LORBIT">    11</i>
   <v name="RWIGS">     -1.00000000</v>
   <i type="int" name="NEDOS">  2000</i>
   <i name="EMIN">     10.00000000</i>
   <i name="EMAX">    -10.00000000</i>
   <i name="EFERMI">      0.00000000</i>
  </separator>
  <separator name="writing" >
   <i type="int" name="NWRITE">     2</i>
   <i type="logical" name="LWAVE"> T  </i>
   <i type="logical" name="LDOWNSAMPLE"> F  </i>
   <i type="logical" name="LCHARG"> T  </i>
   <i type="logical" name="LPARD"> F  </i>
   <i type="logical" name="LVTOT"> F  </i>
   <i type="logical" name="LVHAR"> T  </i>
   <i type="logical" name="LELF"> F  </i>
   <i type="logical" name="LOPTICS"> F  </i>
   <v name="STM">      0.00000000      0.00000000      0.00000000      0.00000000      0.00000000      0.00000000      0.00000000</v>
  </separator>
  <separator name="performance" >
   <i type="int" name="NPAR">     4</i>
   <i type="int" name="NSIM">     4</i>
   <i type="int" name="NBLK">    -1</i>
   <i type="logical" name="LPLANE"> T  </i>
   <i type="logical" name="LSCALAPACK"> T  </i>
   <i type="logical" name="LSCAAWARE"> F  </i>
   <i type="logical" name="LSCALU"> F  </i>
   <i type="logical" name="LASYNC"> F  </i>
   <i type="logical" name="LORBITALREAL"> F  </i>
  </separator>
  <separator name="miscellaneous" >
   <i type="int" name="IDIOT">     3</i>
   <i type="int" name="ISPECIAL">     0</i>
   <i type="logical" name="LMUSIC"> F  </i>
   <v name="POMASS">     30.97400000</v>
   <v name="DARWINR">      0.00000000</v>
   <v name="DARWINV">      1.00000000</v>
   <i type="logical" name="LCORR"> T  </i>
  </separator>
  <i type="logical" name="GGA_COMPAT"> T  </i>
  <i type="logical" name="LBERRY"> F  </i>
  <i type="int" name="ICORELEVEL">     1</i>
  <i type="int" name="CLNT">     1</i>
  <i type="int" name="CLN">     1</i>
  <i type="int" name="CLL">     0</i>
  <i name="CLZ">      0.00000000</i>
  <i type="logical" name="LDAU"> F  </i>
  <i type="int" name="I_CONSTRAINED_M">     0</i>
  <separator name="electronic exchange-correlation" >
   <i type="string" name="GGA">PE</i>
   <i type="int" name="VOSKOWN">     0</i>
   <i type="logical" name="LHFCALC"> F  </i>
   <i type="string" name="PRECFOCK"></i>
   <i type="logical" name="LSYMGRAD"> F  </i>
   <i type="logical" name="LHFONE"> F  </i>
   <i type="logical" name="LRHFCALC"> F  </i>
   <i type="logical" name="LTHOMAS"> F  </i>
   <i type="logical" name="LMODELHF"> F  </i>
   <i name="ENCUT4O">     -1.00000000</i>
   <i type="int" name="EXXOEP">     0</i>
   <i type="int" name="FOURORBIT">     0</i>
   <i name="AEXX">      0.00000000</i>
   <i name="HFALPHA">      0.00000000</i>
   <i name="MCALPHA">      0.00000000</i>
   <i name="ALDAX">      1.00000000</i>
   <i name="AGGAX">      1.00000000</i>
   <i name="ALDAC">      1.00000000</i>
   <i name="AGGAC">      1.00000000</i>
   <i type="int" name="NKREDX">     1</i>
   <i type="int" name="NKREDY">     1</i>
   <i type="int" name="NKREDZ">     1</i>
   <i type="logical" name="SHIFTRED"> F  </i>
   <i type="logical" name="ODDONLY"> F  </i>
   <i type="logical" name="EVENONLY"> F  </i>
   <i type="int" name="LMAXFOCK">     0</i>
   <i type="int" name="NMAXFOCKAE">     0</i>
   <i type="logical" name="LFOCKAEDFT"> F  </i>
   <i name="HFSCREEN">      0.00000000</i>
   <i name="HFSCREENC">      0.00000000</i>
   <i type="int" name="NBANDSGWLOW">     0</i>
  </separator>
  <separator name="vdW DFT" >
   <i type="logical" name="LUSE_VDW"> F  </i>
   <i name="Zab_VDW">     -0.84910000</i>
   <i name="PARAM1">      0.12340000</i>
   <i name="PARAM2">      1.00000000</i>
   <i name="PARAM3">      0.00000000</i>
  </separator>
  <separator name="model GW" >
   <i type="int" name="MODEL_GW">     0</i>
   <i name="MODEL_EPS0">     23.83979645</i>
   <i name="MODEL_ALPHA">      1.00000000</i>
  </separator>
  <separator name="linear response parameters" >
   <i type="logical" name="LEPSILON"> F  </i>
   <i type="logical" name="LRPA"> F  </i>
   <i type="logical" name="LNABLA"> F  </i>
   <i type="logical" name="LVEL"> F  </i>
   <i type="int" name="KINTER">     0</i>
   <i name="CSHIFT">      0.10000000</i>
   <i name="OMEGAMAX">     -1.00000000</i>
   <i name="DEG_THRESHOLD">      0.00200000</i>
   <i name="RTIME">     -0.10000000</i>
   <i name="WPLASMAI">      0.00000000</i>
   <v name="DFIELD">      0.00000000      0.00000000      0.00000000</v>
   <v name="WPLASMA">      0.00000000      0.00000000      0.00000000      0.00000000      0.00000000      0.00000000      0.00000000      0.00000000      0.00000000</v>
  </separator>
  <separator name="orbital magnetization" >
   <i type="logical" name="NUCIND"> F  </i>
   <v name="MAGPOS">      0.00000000      0.00000000      0.00000000</v>
   <i type="logical" name="LNICSALL"> T  </i>
   <i type="logical" name="ORBITALMAG"> F  </i>
   <i type="logical" name="LMAGBLOCH"> F  </i>
   <i type="logical" name="LCHIMAG"> F  </i>
   <i type="logical" name="LGAUGE"> T  </i>
   <i type="int" name="MAGATOM">     0</i>
   <v name="MAGDIPOL">      0.00000000      0.00000000      0.00000000</v>
   <v name="AVECCONST">      0.00000000      0.00000000      0.00000000</v>
  </separator>
  <separator name="response functions" >
   <i type="logical" name="LADDER"> F  </i>
   <i type="logical" name="LRPAFORCE"> F  </i>
   <i type="logical" name="LFXC"> F  </i>
   <i type="logical" name="LHARTREE"> T  </i>
   <i type="int" name="IBSE">     0</i>
   <v type="int" name="KPOINT">    -1     0     0     0</v>
   <i type="logical" name="LTCTE"> F  </i>
   <i type="logical" name="LTETE"> F  </i>
   <i type="logical" name="LTRIPLET"> F  </i>
   <i type="logical" name="LFXCEPS"> F  </i>
   <i type="logical" name="LFXHEG"> F  </i>
   <i type="int" name="NATURALO">     2</i>
   <i type="logical" name="L2ORDER"> F  </i>
   <i type="logical" name="LMP2LT"> F  </i>
   <i type="logical" name="LUSEW"> F  </i>
   <i name="ENCUTGW">     -2.00000000</i>
   <i name="ENCUTGWSOFT">     -2.00000000</i>
   <i name="ENCUTLF">     -1.00000000</i>
   <i type="int" name="LMAXMP2">    -1</i>
   <i name="SCISSOR">      0.00000000</i>
   <i type="int" name="NOMEGA">     0</i>
   <i type="int" name="NOMEGAR">     0</i>
   <i type="int" name="NBANDSGW">    -1</i>
   <i type="int" name="NBANDSO">    -1</i>
   <i type="int" name="NBANDSV">    -1</i>
   <i type="int" name="NELM">   200</i>
   <i type="int" name="NELMHF">     1</i>
   <i type="int" name="DIM">     3</i>
   <i type="int" name="ANTIRES">     0</i>
   <i name="OMEGAMAX">    -30.00000000</i>
   <i name="OMEGAMIN">    -30.00000000</i>
   <i name="OMEGATL">   -200.00000000</i>
   <i type="int" name="OMEGAGRID">   140</i>
   <i name="CSHIFT">     -0.10000000</i>
   <i type="logical" name="SELFENERGY"> F  </i>
   <i type="logical" name="LSPECTRAL"> F  </i>
   <i type="logical" name="LSPECTRALGW"> F  </i>
   <i type="logical" name="LSINGLES"> F  </i>
   <i type="logical" name="LFERMIGW"> F  </i>
   <i type="logical" name="ODDONLYGW"> F  </i>
   <i type="logical" name="EVENONLYGW"> F  </i>
   <i type="int" name="NKREDLFX">     1</i>
   <i type="int" name="NKREDLFY">     1</i>
   <i type="int" name="NKREDLFZ">     1</i>
   <i type="int" name="MAXMEM">  2800</i>
   <i type="int" name="TELESCOPE">     0</i>
   <i type="int" name="TAUPAR">     1</i>
   <i type="int" name="OMEGAPAR">    -1</i>
   <i name="LAMBDA">      1.00000000</i>
  </separator>
  <separator name="External order field" >
   <i name="OFIELD_KAPPA">      0.00000000</i>
   <v name="OFIELD_K">      0.00000000      0.00000000      0.00000000</v>
   <i name="OFIELD_Q6_NEAR">      0.00000000</i>
   <i name="OFIELD_Q6_FAR">      0.00000000</i>
   <i name="OFIELD_A">      0.00000000</i>
  </separator>
 </parameters>
 <atominfo>
  <atoms>      12 </atoms>
  <types>       1 </types>
  <array name="atoms" >
   <dimension dim="1">ion</dimension>
   <field type="string">element</field>
   <field type="int">atomtype</field>
   <set>
    <rc><c>P </c><c>   1</c></rc>
    <rc><c>P </c><c>   1</c></rc>
    <rc><c>P </c><c>   1</c></rc>
    <rc><c>P </c><c>   1</c></rc>
    <rc><c>P </c><c>   1</c></rc>
    <rc><c>P </c><c>   1</c></rc>
    <rc><c>P </c><c>   1</c></rc>
    <rc><c>P </c><c>   1</c></rc>
    <rc><c>P </c><c>   1</c></rc>
    <rc><c>P </c><c>   1</c></rc>
    <rc><c>P </c><c>   1</c></rc>
    <rc><c>P </c><c>   1</c></rc>
   </set>
  </array>
  <array name="atomtypes" >
   <dimension dim="1">type</dimension>
   <field type="int">atomspertype</field>
   <field type="string">element</field>
   <field>mass</field>
   <field>valence</field>
   <field type="string">pseudopotential</field>
   <set>
    <rc><c>  12</c><c>P </c><c>     30.97400000</c><c>      5.00000000</c><c>  PAW_PBE P 06Sep2000                   </c></rc>
   </set>
  </array>
 </atominfo>
 <structure name="initialpos" >
  <crystal>
   <varray name="basis" >
    <v>       3.34288600       0.00000000       0.00000000 </v>
    <v>       0.00000000      32.60240900       0.00000000 </v>
    <v>       0.00000000       0.00000000       4.37483100 </v>
   </varray>
   <i name="volume">    476.79592902 </i>
   <varray name="rec_basis" >
    <v>       0.29914272       0.00000000       0.00000000 </v>
    <v>       0.00000000       0.03067258       0.00000000 </v>
    <v>       0.00000000       0.00000000       0.22858026 </v>
   </varray>
  </crystal>
  <varray name="positions" >
   <v>       0.00000000       0.30672600       0.91892400 </v>
   <v>       0.50000000       0.30672600       0.58107600 </v>
   <v>       0.00000000       0.37246700       0.08107600 </v>
   <v>       0.50000000       0.37246700       0.41892400 </v>
   <v>       0.50000000       0.46712900       0.91892400 </v>
   <v>       0.00000000       0.46712900       0.58107600 </v>
   <v>       0.50000000       0.53287100       0.08107600 </v>
   <v>       0.00000000       0.53287100       0.41892400 </v>
   <v>       0.00000000       0.62753300       0.91892400 </v>
   <v>       0.50000000       0.62753300       0.58107600 </v>
   <v>       0.00000000       0.69327400       0.08107600 </v>
   <v>       0.50000000       0.69327400       0.41892400 </v>
  </varray>
 </structure>
 <calculation>
  <scstep>
   <time name="dav">    0.94    0.94</time>
   <time name="total">    1.06    1.06</time>
   <energy>
    <i name="alphaZ">     30.28014394 </i>
    <i name="ewald">  14973.24208224 </i>
    <i name="hartreedc"> -16928.93300519 </i>
    <i name="XCdc">     40.33410246 </i>
    <i name="pawpsdc">   1677.12035881 </i>
    <i name="pawaedc">  -1579.18296132 </i>
    <i name="eentropy">     -0.00087001 </i>
    <i name="bandstr">     96.36361321 </i>
    <i name="atom">   2112.51011868 </i>
    <i name="e_fr_energy">    421.73358282 </i>
    <i name="e_wo_entrp">    421.73445283 </i>
    <i name="e_0_energy">    421.73401782 </i>
   </energy>
  </scstep>
  <scstep>
   <time name="dav">    1.19    1.19</time>
   <time name="total">    1.19    1.19</time>
   <energy>
    <i name="e_fr_energy">    -15.19324356 </i>
    <i name="e_wo_entrp">    -15.19303417 </i>
    <i name="e_0_energy">    -15.19313887 </i>
   </energy>
  </scstep>
  <scstep>
   <time name="dav">    1.09    1.09</time>
   <time name="total">    1.09    1.09</time>
   <energy>
    <i name="e_fr_energy">    -62.93637803 </i>
    <i name="e_wo_entrp">    -62.93637803 </i>
    <i name="e_0_energy">    -62.93637803 </i>
   </energy>
  </scstep>
  <scstep>
   <time name="dav">    1.22    1.22</time>
   <time name="total">    1.22    1.22</time>
   <energy>
    <i name="e_fr_energy">    -64.76438226 </i>
    <i name="e_wo_entrp">    -64.76438226 </i>
    <i name="e_0_energy">    -64.76438226 </i>
   </energy>
  </scstep>
  <scstep>
   <time name="dav">    1.30    1.31</time>
   <time name="total">    1.36    1.37</time>
   <energy>
    <i name="e_fr_energy">    -64.81554046 </i>
    <i name="e_wo_entrp">    -64.81554046 </i>
    <i name="e_0_energy">    -64.81554046 </i>
   </energy>
  </scstep>
  <scstep>
   <time name="dav">    1.12    1.13</time>
   <time name="total">    1.28    1.29</time>
   <energy>
    <i name="e_fr_energy">    -64.49090930 </i>
    <i name="e_wo_entrp">    -64.49090930 </i>
    <i name="e_0_energy">    -64.49090930 </i>
   </energy>
  </scstep>
  <scstep>
   <time name="dav">    1.17    1.17</time>
   <time name="total">    1.33    1.33</time>
   <energy>
    <i name="e_fr_energy">    -64.34159083 </i>
    <i name="e_wo_entrp">    -64.34159059 </i>
    <i name="e_0_energy">    -64.34159071 </i>
   </energy>
  </scstep>
  <scstep>
   <time name="dav">    1.12    1.12</time>
   <time name="total">    1.28    1.28</time>
   <energy>
    <i name="e_fr_energy">    -64.34132010 </i>
    <i name="e_wo_entrp">    -64.34132004 </i>
    <i name="e_0_energy">    -64.34132007 </i>
   </energy>
  </scstep>
  <scstep>
   <time name="dav">    1.24    1.24</time>
   <time name="total">    1.40    1.40</time>
   <energy>
    <i name="e_fr_energy">    -64.34128378 </i>
    <i name="e_wo_entrp">    -64.34128372 </i>
    <i name="e_0_energy">    -64.34128375 </i>
   </energy>
  </scstep>
  <scstep>
   <time name="dav">    1.09    1.09</time>
   <time name="total">    1.25    1.26</time>
   <energy>
    <i name="e_fr_energy">    -64.34102461 </i>
    <i name="e_wo_entrp">    -64.34102457 </i>
    <i name="e_0_energy">    -64.34102459 </i>
   </energy>
  </scstep>
  <scstep>
   <time name="dav">    1.14    1.14</time>
   <time name="total">    1.30    1.30</time>
   <energy>
    <i name="e_fr_energy">    -64.34075379 </i>
    <i name="e_wo_entrp">    -64.34075374 </i>
    <i name="e_0_energy">    -64.34075376 </i>
   </energy>
  </scstep>
  <scstep>
   <time name="dav">    1.12    1.12</time>
   <time name="total">    1.28    1.28</time>
   <energy>
    <i name="e_fr_energy">    -64.34083192 </i>
    <i name="e_wo_entrp">    -64.34083187 </i>
    <i name="e_0_energy">    -64.34083189 </i>
   </energy>
  </scstep>
  <scstep>
   <time name="dav">    1.04    1.04</time>
   <time name="total">    1.22    1.22</time>
   <energy>
    <i name="e_fr_energy">    -64.34104366 </i>
    <i name="e_wo_entrp">    -64.34104361 </i>
    <i name="e_0_energy">    -64.34104364 </i>
   </energy>
  </scstep>
  <scstep>
   <time name="dav">    1.03    1.03</time>
   <time name="total">    1.19    1.20</time>
   <energy>
    <i name="e_fr_energy">    -64.34120501 </i>
    <i name="e_wo_entrp">    -64.34120494 </i>
    <i name="e_0_energy">    -64.34120497 </i>
   </energy>
  </scstep>
  <scstep>
   <time name="dav">    0.82    0.82</time>
   <time name="total">    0.98    0.98</time>
   <energy>
    <i name="e_fr_energy">    -64.34122750 </i>
    <i name="e_wo_entrp">    -64.34122744 </i>
    <i name="e_0_energy">    -64.34122747 </i>
   </energy>
  </scstep>
  <scstep>
   <time name="dav">    0.95    0.95</time>
   <time name="total">    1.11    1.11</time>
   <energy>
    <i name="e_fr_energy">    -64.34148711 </i>
    <i name="e_wo_entrp">    -64.34148704 </i>
    <i name="e_0_energy">    -64.34148708 </i>
   </energy>
  </scstep>
  <scstep>
   <time name="dav">    0.87    0.87</time>
   <time name="total">    1.04    1.04</time>
   <energy>
    <i name="e_fr_energy">    -64.34152067 </i>
    <i name="e_wo_entrp">    -64.34152061 </i>
    <i name="e_0_energy">    -64.34152064 </i>
   </energy>
  </scstep>
  <scstep>
   <time name="dav">    0.82    0.82</time>
   <time name="total">    1.00    1.00</time>
   <energy>
    <i name="alphaZ">     30.28014394 </i>
    <i name="ewald">  14973.24208224 </i>
    <i name="hartreedc"> -16968.17147907 </i>
    <i name="XCdc">     43.14216559 </i>
    <i name="pawpsdc">   6272.61131235 </i>
    <i name="pawaedc">  -6175.59173716 </i>
    <i name="eentropy">     -0.00000007 </i>
    <i name="bandstr">   -352.36412773 </i>
    <i name="atom">   2112.51011868 </i>
    <i name="e_fr_energy">    -64.34152123 </i>
    <i name="e_wo_entrp">    -64.34152117 </i>
    <i name="e_0_energy">    -64.34152120 </i>
   </energy>
  </scstep>
  <structure>
   <crystal>
    <varray name="basis" >
     <v>       3.34288600       0.00000000       0.00000000 </v>
     <v>       0.00000000      32.60240900       0.00000000 </v>
     <v>       0.00000000       0.00000000       4.37483100 </v>
    </varray>
    <i name="volume">    476.79592902 </i>
    <varray name="rec_basis" >
     <v>       0.29914272       0.00000000       0.00000000 </v>
     <v>       0.00000000       0.03067258       0.00000000 </v>
     <v>       0.00000000       0.00000000       0.22858026 </v>
    </varray>
   </crystal>
   <varray name="positions" >
    <v>       0.00000000       0.30672600       0.91892400 </v>
    <v>       0.50000000       0.30672600       0.58107600 </v>
    <v>       0.00000000       0.37246700       0.08107600 </v>
    <v>       0.50000000       0.37246700       0.41892400 </v>
    <v>       0.50000000       0.46712900       0.91892400 </v>
    <v>       0.00000000       0.46712900       0.58107600 </v>
    <v>       0.50000000       0.53287100       0.08107600 </v>
    <v>       0.00000000       0.53287100       0.41892400 </v>
    <v>       0.00000000       0.62753300       0.91892400 </v>
    <v>       0.50000000       0.62753300       0.58107600 </v>
    <v>       0.00000000       0.69327400       0.08107600 </v>
    <v>       0.50000000       0.69327400       0.41892400 </v>
   </varray>
  </structure>
  <varray name="forces" >
   <v>       0.00000000       0.08188886      -0.03871332 </v>
   <v>       0.00000000       0.08188886       0.03871332 </v>
   <v>       0.00000000      -0.07761506      -0.02120355 </v>
   <v>       0.00000000      -0.07761506       0.02120355 </v>
   <v>       0.00000000       0.03824364       0.00233953 </v>
   <v>       0.00000000       0.03824364      -0.00233953 </v>
   <v>      -0.00000000      -0.03824364      -0.00233953 </v>
   <v>       0.00000000      -0.03824364       0.00233953 </v>
   <v>       0.00000000       0.07761506       0.02120355 </v>
   <v>       0.00000000       0.07761506      -0.02120355 </v>
   <v>       0.00000000      -0.08188886       0.03871332 </v>
   <v>       0.00000000      -0.08188886      -0.03871332 </v>
  </varray>
  <varray name="stress" >
   <v>       1.00887355       0.00000000       0.00000000 </v>
   <v>       0.00000000      -3.14912690       0.00000000 </v>
   <v>       0.00000000      -0.00000000       4.20158149 </v>
  </varray>
  <energy>
   <i name="e_fr_energy">    -66.51546075 </i>
   <i name="e_wo_entrp">    -66.51546072 </i>
   <i name="e_0_energy">     -0.00000007 </i>
  </energy>
  <time name="totalsc">   24.84   24.91</time>
  <eigenvalues>
   <array>
    <dimension dim="1">band</dimension>
    <dimension dim="2">kpoint</dimension>
    <dimension dim="3">spin</dimension>
    <field>eigene</field>
    <field>occ</field>
    <set>
     <set comment="spin 1">
      <set comment="kpoint 1">
       <r>  -14.8547    1.0000 </r>
       <r>  -14.7346    1.0000 </r>
       <r>  -14.6658    1.0000 </r>
       <r>  -12.3737    1.0000 </r>
       <r>  -12.1280    1.0000 </r>
       <r>  -11.9481    1.0000 </r>
       <r>   -8.6066    1.0000 </r>
       <r>   -8.5226    1.0000 </r>
       <r>   -8.4923    1.0000 </r>
       <r>   -5.9246    1.0000 </r>
       <r>   -5.5459    1.0000 </r>
       <r>   -5.1276    1.0000 </r>
       <r>   -4.5055    1.0000 </r>
       <r>   -4.5054    1.0000 </r>
       <r>   -4.1879    1.0000 </r>
       <r>   -4.1436    1.0000 </r>
       <r>   -3.9962    1.0000 </r>
       <r>   -3.9220    1.0000 </r>
       <r>   -3.3942    1.0000 </r>
       <r>   -3.2935    1.0000 </r>
       <r>   -3.2437    1.0000 </r>
       <r>   -1.8803    1.0000 </r>
       <r>   -1.7370    1.0000 </r>
       <r>   -1.6253    1.0000 </r>
       <r>   -1.5901    1.0000 </r>
       <r>   -1.5050    1.0000 </r>
       <r>   -1.1085    1.0000 </r>
       <r>   -0.2502    1.0000 </r>
       <r>    0.3536    1.0000 </r>
       <r>    0.9090    1.0000 </r>
       <r>    0.9686    0.0000 </r>
       <r>    1.4963    0.0000 </r>
       <r>    1.5222    0.0000 </r>
       <r>    1.6968    0.0000 </r>
       <r>    1.7043    0.0000 </r>
       <r>    1.8602    0.0000 </r>
       <r>    2.7295    0.0000 </r>
       <r>    2.8999    0.0000 </r>
       <r>    2.9709    0.0000 </r>
       <r>    3.6952    0.0000 </r>
      </set>
      <set comment="kpoint 2">
       <r>  -14.5312    1.0000 </r>
       <r>  -14.4122    1.0000 </r>
       <r>  -14.3447    1.0000 </r>
       <r>  -12.0370    1.0000 </r>
       <r>  -11.7927    1.0000 </r>
       <r>  -11.6139    1.0000 </r>
       <r>   -8.8992    1.0000 </r>
       <r>   -8.8383    1.0000 </r>
       <r>   -8.8323    1.0000 </r>
       <r>   -5.6516    1.0000 </r>
       <r>   -5.2806    1.0000 </r>
       <r>   -4.9727    1.0000 </r>
       <r>   -4.8918    1.0000 </r>
       <r>   -4.8853    1.0000 </r>
       <r>   -4.8538    1.0000 </r>
       <r>   -4.4289    1.0000 </r>
       <r>   -4.3556    1.0000 </r>
       <r>   -4.3449    1.0000 </r>
       <r>   -4.2194    1.0000 </r>
       <r>   -3.8749    1.0000 </r>
       <r>   -3.7307    1.0000 </r>
       <r>   -2.6620    1.0000 </r>
       <r>   -2.5117    1.0000 </r>
       <r>   -2.3464    1.0000 </r>
       <r>   -1.7423    1.0000 </r>
       <r>   -1.4710    1.0000 </r>
       <r>   -0.9685    1.0000 </r>
       <r>   -0.2142    1.0000 </r>
       <r>    0.1861    1.0000 </r>
       <r>    0.4565    1.0000 </r>
       <r>    1.2519    0.0000 </r>
       <r>    1.6565    0.0000 </r>
       <r>    1.8809    0.0000 </r>
       <r>    2.3384    0.0000 </r>
       <r>    2.5504    0.0000 </r>
       <r>    2.5748    0.0000 </r>
       <r>    3.7493    0.0000 </r>
       <r>    3.8748    0.0000 </r>
       <r>    3.9795    0.0000 </r>
       <r>    4.2771    0.0000 </r>
      </set>
      <set comment="kpoint 3">
       <r>  -13.5781    1.0000 </r>
       <r>  -13.4633    1.0000 </r>
       <r>  -13.4001    1.0000 </r>
       <r>  -11.0354    1.0000 </r>
       <r>  -10.7958    1.0000 </r>
       <r>  -10.6208    1.0000 </r>
       <r>  -10.2417    1.0000 </r>
       <r>  -10.1627    1.0000 </r>
       <r>  -10.1376    1.0000 </r>
       <r>   -7.2215    1.0000 </r>
       <r>   -7.0254    1.0000 </r>
       <r>   -6.8872    1.0000 </r>
       <r>   -4.9310    1.0000 </r>
       <r>   -4.9060    1.0000 </r>
       <r>   -4.8499    1.0000 </r>
       <r>   -4.8407    1.0000 </r>
       <r>   -4.6056    1.0000 </r>
       <r>   -4.3162    1.0000 </r>
       <r>   -3.4265    1.0000 </r>
       <r>   -3.1572    1.0000 </r>
       <r>   -3.0342    1.0000 </r>
       <r>   -2.6860    1.0000 </r>
       <r>   -2.3966    1.0000 </r>
       <r>   -2.1622    1.0000 </r>
       <r>   -1.7912    1.0000 </r>
       <r>   -1.5221    1.0000 </r>
       <r>   -1.1905    1.0000 </r>
       <r>   -0.8936    1.0000 </r>
       <r>   -0.7538    1.0000 </r>
       <r>   -0.6904    1.0000 </r>
       <r>    1.1107    0.0000 </r>
       <r>    1.1719    0.0000 </r>
       <r>    1.4337    0.0000 </r>
       <r>    2.0729    0.0000 </r>
       <r>    2.2846    0.0000 </r>
       <r>    2.6020    0.0000 </r>
       <r>    2.6453    0.0000 </r>
       <r>    2.6613    0.0000 </r>
       <r>    2.6687    0.0000 </r>
       <r>    2.9494    0.0000 </r>
      </set>
      <set comment="kpoint 4">
       <r>  -12.0675    1.0000 </r>
       <r>  -12.0675    1.0000 </r>
       <r>  -11.9627    1.0000 </r>
       <r>  -11.9627    1.0000 </r>
       <r>  -11.9103    1.0000 </r>
       <r>  -11.9103    1.0000 </r>
       <r>   -9.4001    1.0000 </r>
       <r>   -9.4001    1.0000 </r>
       <r>   -9.1715    1.0000 </r>
       <r>   -9.1715    1.0000 </r>
       <r>   -9.0053    1.0000 </r>
       <r>   -9.0053    1.0000 </r>
       <r>   -4.4699    1.0000 </r>
       <r>   -4.4699    1.0000 </r>
       <r>   -4.3357    1.0000 </r>
       <r>   -4.3357    1.0000 </r>
       <r>   -4.2900    1.0000 </r>
       <r>   -4.2900    1.0000 </r>
       <r>   -2.4677    1.0000 </r>
       <r>   -2.4677    1.0000 </r>
       <r>   -2.3942    1.0000 </r>
       <r>   -2.3942    1.0000 </r>
       <r>   -2.3938    1.0000 </r>
       <r>   -2.3938    1.0000 </r>
       <r>   -2.0110    1.0000 </r>
       <r>   -2.0110    1.0000 </r>
       <r>   -1.7404    1.0000 </r>
       <r>   -1.7404    1.0000 </r>
       <r>   -1.4882    1.0000 </r>
       <r>   -1.4882    1.0000 </r>
       <r>    1.6187    0.0000 </r>
       <r>    1.6187    0.0000 </r>
       <r>    1.6312    0.0000 </r>
       <r>    1.6312    0.0000 </r>
       <r>    1.7131    0.0000 </r>
       <r>    1.7131    0.0000 </r>
       <r>    2.1545    0.0000 </r>
       <r>    2.1546    0.0000 </r>
       <r>    2.1910    0.0000 </r>
       <r>    2.1911    0.0000 </r>
      </set>
      <set comment="kpoint 5">
       <r>  -14.5032    1.0000 </r>
       <r>  -14.3903    1.0000 </r>
       <r>  -14.3293    1.0000 </r>
       <r>  -12.5961    1.0000 </r>
       <r>  -12.4624    1.0000 </r>
       <r>  -12.4017    1.0000 </r>
       <r>   -9.0059    1.0000 </r>
       <r>   -8.8493    1.0000 </r>
       <r>   -8.7267    1.0000 </r>
       <r>   -6.9122    1.0000 </r>
       <r>   -6.6394    1.0000 </r>
       <r>   -6.4715    1.0000 </r>
       <r>   -4.5491    1.0000 </r>
       <r>   -4.0382    1.0000 </r>
       <r>   -3.3762    1.0000 </r>
       <r>   -3.1170    1.0000 </r>
       <r>   -3.0638    1.0000 </r>
       <r>   -3.0247    1.0000 </r>
       <r>   -2.9838    1.0000 </r>
       <r>   -2.7188    1.0000 </r>
       <r>   -2.7181    1.0000 </r>
       <r>   -1.8654    1.0000 </r>
       <r>   -1.7650    1.0000 </r>
       <r>   -1.7339    1.0000 </r>
       <r>   -1.7263    1.0000 </r>
       <r>   -1.0753    1.0000 </r>
       <r>   -0.4264    1.0000 </r>
       <r>   -0.2676    1.0000 </r>
       <r>   -0.2051    1.0000 </r>
       <r>   -0.0276    1.0000 </r>
       <r>    1.6790    0.0000 </r>
       <r>    2.0054    0.0000 </r>
       <r>    2.1135    0.0000 </r>
       <r>    2.2068    0.0000 </r>
       <r>    2.2567    0.0000 </r>
       <r>    2.2599    0.0000 </r>
       <r>    2.3676    0.0000 </r>
       <r>    2.7081    0.0000 </r>
       <r>    3.2545    0.0000 </r>
       <r>    3.3403    0.0000 </r>
      </set>
      <set comment="kpoint 6">
       <r>  -14.1845    1.0000 </r>
       <r>  -14.0728    1.0000 </r>
       <r>  -14.0130    1.0000 </r>
       <r>  -12.2802    1.0000 </r>
       <r>  -12.1509    1.0000 </r>
       <r>  -12.0943    1.0000 </r>
       <r>   -9.0397    1.0000 </r>
       <r>   -8.8875    1.0000 </r>
       <r>   -8.7742    1.0000 </r>
       <r>   -6.7963    1.0000 </r>
       <r>   -6.5667    1.0000 </r>
       <r>   -6.4200    1.0000 </r>
       <r>   -4.9862    1.0000 </r>
       <r>   -4.8456    1.0000 </r>
       <r>   -4.7167    1.0000 </r>
       <r>   -4.5119    1.0000 </r>
       <r>   -4.0380    1.0000 </r>
       <r>   -3.7239    1.0000 </r>
       <r>   -3.3134    1.0000 </r>
       <r>   -3.1980    1.0000 </r>
       <r>   -2.9145    1.0000 </r>
       <r>   -2.3361    1.0000 </r>
       <r>   -2.1653    1.0000 </r>
       <r>   -2.1440    1.0000 </r>
       <r>   -1.4993    1.0000 </r>
       <r>   -0.9519    1.0000 </r>
       <r>   -0.8612    1.0000 </r>
       <r>   -0.7312    1.0000 </r>
       <r>   -0.4609    1.0000 </r>
       <r>   -0.4125    1.0000 </r>
       <r>    2.0274    0.0000 </r>
       <r>    2.3123    0.0000 </r>
       <r>    2.5875    0.0000 </r>
       <r>    2.8628    0.0000 </r>
       <r>    3.0133    0.0000 </r>
       <r>    3.0652    0.0000 </r>
       <r>    3.3730    0.0000 </r>
       <r>    3.4976    0.0000 </r>
       <r>    3.6076    0.0000 </r>
       <r>    4.3192    0.0000 </r>
      </set>
      <set comment="kpoint 7">
       <r>  -13.2534    1.0000 </r>
       <r>  -13.1463    1.0000 </r>
       <r>  -13.0915    1.0000 </r>
       <r>  -11.4368    1.0000 </r>
       <r>  -11.3346    1.0000 </r>
       <r>  -11.3016    1.0000 </r>
       <r>   -9.7502    1.0000 </r>
       <r>   -9.5902    1.0000 </r>
       <r>   -9.4806    1.0000 </r>
       <r>   -7.5241    1.0000 </r>
       <r>   -7.4372    1.0000 </r>
       <r>   -7.4165    1.0000 </r>
       <r>   -5.8331    1.0000 </r>
       <r>   -5.6653    1.0000 </r>
       <r>   -5.5321    1.0000 </r>
       <r>   -4.7975    1.0000 </r>
       <r>   -4.7534    1.0000 </r>
       <r>   -4.6783    1.0000 </r>
       <r>   -3.3918    1.0000 </r>
       <r>   -3.3112    1.0000 </r>
       <r>   -3.1777    1.0000 </r>
       <r>   -2.5127    1.0000 </r>
       <r>   -2.3686    1.0000 </r>
       <r>   -2.3640    1.0000 </r>
       <r>   -2.2361    1.0000 </r>
       <r>   -1.8481    1.0000 </r>
       <r>   -1.3305    1.0000 </r>
       <r>   -0.9602    1.0000 </r>
       <r>   -0.6602    1.0000 </r>
       <r>   -0.6243    1.0000 </r>
       <r>    1.7033    0.0000 </r>
       <r>    1.8314    0.0000 </r>
       <r>    2.0263    0.0000 </r>
       <r>    2.5144    0.0000 </r>
       <r>    2.7048    0.0000 </r>
       <r>    2.9609    0.0000 </r>
       <r>    3.1520    0.0000 </r>
       <r>    3.3299    0.0000 </r>
       <r>    3.3718    0.0000 </r>
       <r>    3.8737    0.0000 </r>
      </set>
      <set comment="kpoint 8">
       <r>  -11.8545    1.0000 </r>
       <r>  -11.8545    1.0000 </r>
       <r>  -11.7627    1.0000 </r>
       <r>  -11.7627    1.0000 </r>
       <r>  -11.7244    1.0000 </r>
       <r>  -11.7244    1.0000 </r>
       <r>   -9.4310    1.0000 </r>
       <r>   -9.4310    1.0000 </r>
       <r>   -9.2733    1.0000 </r>
       <r>   -9.2733    1.0000 </r>
       <r>   -9.1819    1.0000 </r>
       <r>   -9.1819    1.0000 </r>
       <r>   -5.0177    1.0000 </r>
       <r>   -5.0177    1.0000 </r>
       <r>   -4.8282    1.0000 </r>
       <r>   -4.8282    1.0000 </r>
       <r>   -4.6765    1.0000 </r>
       <r>   -4.6765    1.0000 </r>
       <r>   -3.6867    1.0000 </r>
       <r>   -3.6867    1.0000 </r>
       <r>   -3.4424    1.0000 </r>
       <r>   -3.4424    1.0000 </r>
       <r>   -3.3092    1.0000 </r>
       <r>   -3.3092    1.0000 </r>
       <r>   -1.5496    1.0000 </r>
       <r>   -1.5496    1.0000 </r>
       <r>   -1.2060    1.0000 </r>
       <r>   -1.2060    1.0000 </r>
       <r>   -0.9103    1.0000 </r>
       <r>   -0.9103    1.0000 </r>
       <r>    2.0050    0.0000 </r>
       <r>    2.0050    0.0000 </r>
       <r>    2.3079    0.0000 </r>
       <r>    2.3079    0.0000 </r>
       <r>    2.4546    0.0000 </r>
       <r>    2.4546    0.0000 </r>
       <r>    3.1795    0.0000 </r>
       <r>    3.1795    0.0000 </r>
       <r>    3.4034    0.0000 </r>
       <r>    3.4034    0.0000 </r>
      </set>
      <set comment="kpoint 9">
       <r>  -13.5469    1.0000 </r>
       <r>  -13.5469    1.0000 </r>
       <r>  -13.4773    1.0000 </r>
       <r>  -13.4773    1.0000 </r>
       <r>  -13.4309    1.0000 </r>
       <r>  -13.4309    1.0000 </r>
       <r>   -8.5713    1.0000 </r>
       <r>   -8.5713    1.0000 </r>
       <r>   -8.2548    1.0000 </r>
       <r>   -8.2548    1.0000 </r>
       <r>   -7.9812    1.0000 </r>
       <r>   -7.9812    1.0000 </r>
       <r>   -3.5915    1.0000 </r>
       <r>   -3.5915    1.0000 </r>
       <r>   -2.8287    1.0000 </r>
       <r>   -2.8287    1.0000 </r>
       <r>   -2.4230    1.0000 </r>
       <r>   -2.4230    1.0000 </r>
       <r>   -2.3793    1.0000 </r>
       <r>   -2.3793    1.0000 </r>
       <r>   -2.3340    1.0000 </r>
       <r>   -2.3340    1.0000 </r>
       <r>   -2.0236    1.0000 </r>
       <r>   -2.0236    1.0000 </r>
       <r>   -0.7280    1.0000 </r>
       <r>   -0.7280    1.0000 </r>
       <r>   -0.5203    1.0000 </r>
       <r>   -0.5203    1.0000 </r>
       <r>   -0.4478    1.0000 </r>
       <r>   -0.4478    1.0000 </r>
       <r>    2.1897    0.0000 </r>
       <r>    2.1897    0.0000 </r>
       <r>    2.2330    0.0000 </r>
       <r>    2.2330    0.0000 </r>
       <r>    2.2855    0.0000 </r>
       <r>    2.2855    0.0000 </r>
       <r>    3.4173    0.0000 </r>
       <r>    3.4181    0.0000 </r>
       <r>    3.5767    0.0000 </r>
       <r>    3.5890    0.0000 </r>
      </set>
      <set comment="kpoint 10">
       <r>  -13.2408    1.0000 </r>
       <r>  -13.2408    1.0000 </r>
       <r>  -13.1714    1.0000 </r>
       <r>  -13.1714    1.0000 </r>
       <r>  -13.1260    1.0000 </r>
       <r>  -13.1260    1.0000 </r>
       <r>   -8.4265    1.0000 </r>
       <r>   -8.4265    1.0000 </r>
       <r>   -8.1363    1.0000 </r>
       <r>   -8.1363    1.0000 </r>
       <r>   -7.8957    1.0000 </r>
       <r>   -7.8957    1.0000 </r>
       <r>   -4.3702    1.0000 </r>
       <r>   -4.3702    1.0000 </r>
       <r>   -4.2642    1.0000 </r>
       <r>   -4.2642    1.0000 </r>
       <r>   -4.1661    1.0000 </r>
       <r>   -4.1661    1.0000 </r>
       <r>   -3.3514    1.0000 </r>
       <r>   -3.3514    1.0000 </r>
       <r>   -2.6382    1.0000 </r>
       <r>   -2.6382    1.0000 </r>
       <r>   -1.9683    1.0000 </r>
       <r>   -1.9683    1.0000 </r>
       <r>   -0.8123    1.0000 </r>
       <r>   -0.8123    1.0000 </r>
       <r>   -0.6453    1.0000 </r>
       <r>   -0.6453    1.0000 </r>
       <r>   -0.4919    1.0000 </r>
       <r>   -0.4919    1.0000 </r>
       <r>    2.8448    0.0000 </r>
       <r>    2.8448    0.0000 </r>
       <r>    2.9829    0.0000 </r>
       <r>    2.9829    0.0000 </r>
       <r>    3.0962    0.0000 </r>
       <r>    3.0962    0.0000 </r>
       <r>    3.5133    0.0000 </r>
       <r>    3.5133    0.0000 </r>
       <r>    3.9741    0.0000 </r>
       <r>    3.9741    0.0000 </r>
      </set>
      <set comment="kpoint 11">
       <r>  -12.3829    1.0000 </r>
       <r>  -12.3829    1.0000 </r>
       <r>  -12.3156    1.0000 </r>
       <r>  -12.3156    1.0000 </r>
       <r>  -12.2755    1.0000 </r>
       <r>  -12.2755    1.0000 </r>
       <r>   -8.6636    1.0000 </r>
       <r>   -8.6636    1.0000 </r>
       <r>   -8.5141    1.0000 </r>
       <r>   -8.5141    1.0000 </r>
       <r>   -8.4283    1.0000 </r>
       <r>   -8.4283    1.0000 </r>
       <r>   -5.7961    1.0000 </r>
       <r>   -5.7961    1.0000 </r>
       <r>   -5.5449    1.0000 </r>
       <r>   -5.5449    1.0000 </r>
       <r>   -5.3202    1.0000 </r>
       <r>   -5.3202    1.0000 </r>
       <r>   -3.4355    1.0000 </r>
       <r>   -3.4355    1.0000 </r>
       <r>   -3.0691    1.0000 </r>
       <r>   -3.0691    1.0000 </r>
       <r>   -2.7860    1.0000 </r>
       <r>   -2.7860    1.0000 </r>
       <r>   -1.8733    1.0000 </r>
       <r>   -1.8733    1.0000 </r>
       <r>   -1.3278    1.0000 </r>
       <r>   -1.3278    1.0000 </r>
       <r>   -0.8288    1.0000 </r>
       <r>   -0.8288    1.0000 </r>
       <r>    2.6917    0.0000 </r>
       <r>    2.6917    0.0000 </r>
       <r>    3.2783    0.0000 </r>
       <r>    3.2783    0.0000 </r>
       <r>    3.9560    0.0000 </r>
       <r>    3.9564    0.0000 </r>
       <r>    3.9833    0.0000 </r>
       <r>    3.9847    0.0000 </r>
       <r>    4.0856    0.0000 </r>
       <r>    4.0902    0.0000 </r>
      </set>
      <set comment="kpoint 12">
       <r>  -11.5663    1.0000 </r>
       <r>  -11.5663    1.0000 </r>
       <r>  -11.5107    1.0000 </r>
       <r>  -11.5107    1.0000 </r>
       <r>  -11.5106    1.0000 </r>
       <r>  -11.5106    1.0000 </r>
       <r>   -9.5296    1.0000 </r>
       <r>   -9.5296    1.0000 </r>
       <r>   -9.4665    1.0000 </r>
       <r>   -9.4665    1.0000 </r>
       <r>   -9.4652    1.0000 </r>
       <r>   -9.4652    1.0000 </r>
       <r>   -4.9612    1.0000 </r>
       <r>   -4.9612    1.0000 </r>
       <r>   -4.9464    1.0000 </r>
       <r>   -4.9464    1.0000 </r>
       <r>   -4.6716    1.0000 </r>
       <r>   -4.6716    1.0000 </r>
       <r>   -4.6179    1.0000 </r>
       <r>   -4.6179    1.0000 </r>
       <r>   -4.3757    1.0000 </r>
       <r>   -4.3757    1.0000 </r>
       <r>   -4.3750    1.0000 </r>
       <r>   -4.3750    1.0000 </r>
       <r>   -1.2347    1.0000 </r>
       <r>   -1.2347    1.0000 </r>
       <r>   -1.1808    1.0000 </r>
       <r>   -1.1808    1.0000 </r>
       <r>   -1.0523    1.0000 </r>
       <r>   -1.0523    1.0000 </r>
       <r>    2.6253    0.0000 </r>
       <r>    2.6253    0.0000 </r>
       <r>    2.7584    0.0000 </r>
       <r>    2.7584    0.0000 </r>
       <r>    2.8969    0.0000 </r>
       <r>    2.8969    0.0000 </r>
       <r>    4.8103    0.0000 </r>
       <r>    4.8354    0.0000 </r>
       <r>    4.8644    0.0000 </r>
       <r>    4.8676    0.0000 </r>
      </set>
     </set>
    </set>
   </array>
  </eigenvalues>
  <separator name="orbital magnetization" >
   <v name="MAGDIPOLOUT">      0.00000000      0.00000000      0.00000000</v>
  </separator>
  <dos>
   <i name="efermi">      0.93883164 </i>
   <total>
    <array>
     <dimension dim="1">gridpoints</dimension>
     <dimension dim="2">spin</dimension>
     <field>energy</field>
     <field>total</field>
     <field>integrated</field>
     <set>
      <set comment="spin 1">
       <r>   -15.8408     0.0000     0.0000 </r>
       <r>   -15.8300     0.0000     0.0000 </r>
       <r>   -15.8191     0.0000     0.0000 </r>
       <r>   -15.8082     0.0000     0.0000 </r>
       <r>   -15.7974     0.0000     0.0000 </r>
       <r>   -15.7865     0.0000     0.0000 </r>
       <r>   -15.7757     0.0000     0.0000 </r>
       <r>   -15.7648     0.0000     0.0000 </r>
       <r>   -15.7540     0.0000     0.0000 </r>
       <r>   -15.7431     0.0000     0.0000 </r>
       <r>   -15.7323     0.0000     0.0000 </r>
       <r>   -15.7214     0.0000     0.0000 </r>
       <r>   -15.7106     0.0000     0.0000 </r>
       <r>   -15.6997     0.0000     0.0000 </r>
       <r>   -15.6889     0.0000     0.0000 </r>
       <r>   -15.6780     0.0000     0.0000 </r>
       <r>   -15.6672     0.0000     0.0000 </r>
       <r>   -15.6563     0.0000     0.0000 </r>
       <r>   -15.6455     0.0000     0.0000 </r>
       <r>   -15.6346     0.0000     0.0000 </r>
       <r>   -15.6237     0.0000     0.0000 </r>
       <r>   -15.6129     0.0000     0.0000 </r>
       <r>   -15.6020     0.0000     0.0000 </r>
       <r>   -15.5912     0.0000     0.0000 </r>
       <r>   -15.5803     0.0000     0.0000 </r>
       <r>   -15.5695     0.0000     0.0000 </r>
       <r>   -15.5586     0.0000     0.0000 </r>
       <r>   -15.5478     0.0000     0.0000 </r>
       <r>   -15.5369     0.0000     0.0000 </r>
       <r>   -15.5261     0.0000     0.0000 </r>
       <r>   -15.5152     0.0000     0.0000 </r>
       <r>   -15.5044     0.0000     0.0000 </r>
       <r>   -15.4935     0.0000     0.0000 </r>
       <r>   -15.4827     0.0000     0.0000 </r>
       <r>   -15.4718     0.0000     0.0000 </r>
       <r>   -15.4610     0.0000     0.0000 </r>
       <r>   -15.4501     0.0000     0.0000 </r>
       <r>   -15.4393     0.0000     0.0000 </r>
       <r>   -15.4284     0.0000     0.0000 </r>
       <r>   -15.4175     0.0000     0.0000 </r>
       <r>   -15.4067     0.0000     0.0000 </r>
       <r>   -15.3958     0.0000     0.0000 </r>
       <r>   -15.3850     0.0000     0.0000 </r>
       <r>   -15.3741     0.0000     0.0000 </r>
       <r>   -15.3633     0.0000     0.0000 </r>
       <r>   -15.3524     0.0000     0.0000 </r>
       <r>   -15.3416     0.0000     0.0000 </r>
       <r>   -15.3307     0.0000     0.0000 </r>
       <r>   -15.3199     0.0000     0.0000 </r>
       <r>   -15.3090     0.0000     0.0000 </r>
       <r>   -15.2982     0.0000     0.0000 </r>
       <r>   -15.2873     0.0000     0.0000 </r>
       <r>   -15.2765     0.0000     0.0000 </r>
       <r>   -15.2656     0.0000     0.0000 </r>
       <r>   -15.2548     0.0000     0.0000 </r>
       <r>   -15.2439     0.0000     0.0000 </r>
       <r>   -15.2331     0.0000     0.0000 </r>
       <r>   -15.2222     0.0000     0.0000 </r>
       <r>   -15.2113     0.0000     0.0000 </r>
       <r>   -15.2005     0.0000     0.0000 </r>
       <r>   -15.1896     0.0000     0.0000 </r>
       <r>   -15.1788     0.0000     0.0000 </r>
       <r>   -15.1679     0.0000     0.0000 </r>
       <r>   -15.1571     0.0000     0.0000 </r>
       <r>   -15.1462     0.0000     0.0000 </r>
       <r>   -15.1354     0.0000     0.0000 </r>
       <r>   -15.1245     0.0000     0.0000 </r>
       <r>   -15.1137     0.0000     0.0000 </r>
       <r>   -15.1028     0.0000     0.0000 </r>
       <r>   -15.0920     0.0000     0.0000 </r>
       <r>   -15.0811     0.0000     0.0000 </r>
       <r>   -15.0703     0.0000     0.0000 </r>
       <r>   -15.0594     0.0000     0.0000 </r>
       <r>   -15.0486     0.0000     0.0000 </r>
       <r>   -15.0377     0.0000     0.0000 </r>
       <r>   -15.0269     0.0000     0.0000 </r>
       <r>   -15.0160     0.0000     0.0000 </r>
       <r>   -15.0051     0.0000     0.0000 </r>
       <r>   -14.9943     0.0000     0.0000 </r>
       <r>   -14.9834     0.0000     0.0000 </r>
       <r>   -14.9726     0.0000     0.0000 </r>
       <r>   -14.9617     0.0000     0.0000 </r>
       <r>   -14.9509     0.0000     0.0000 </r>
       <r>   -14.9400     0.0000     0.0000 </r>
       <r>   -14.9292     0.0000     0.0000 </r>
       <r>   -14.9183     0.0000     0.0000 </r>
       <r>   -14.9075     0.0000     0.0000 </r>
       <r>   -14.8966     0.0000     0.0000 </r>
       <r>   -14.8858     0.0000     0.0000 </r>
       <r>   -14.8749     0.0162     0.0002 </r>
       <r>   -14.8641     0.6940     0.0077 </r>
       <r>   -14.8532     3.7655     0.0486 </r>
       <r>   -14.8424     2.8913     0.0800 </r>
       <r>   -14.8315     0.3075     0.0833 </r>
       <r>   -14.8207     0.0040     0.0833 </r>
       <r>   -14.8098     0.0000     0.0833 </r>
       <r>   -14.7989     0.0000     0.0833 </r>
       <r>   -14.7881     0.0000     0.0833 </r>
       <r>   -14.7772     0.0000     0.0833 </r>
       <r>   -14.7664     0.0000     0.0833 </r>
       <r>   -14.7555     0.0115     0.0835 </r>
       <r>   -14.7447     0.5721     0.0897 </r>
       <r>   -14.7338     3.5687     0.1284 </r>
       <r>   -14.7230     3.1362     0.1624 </r>
       <r>   -14.7121     0.3843     0.1666 </r>
       <r>   -14.7013     0.0058     0.1667 </r>
       <r>   -14.6904     0.0019     0.1667 </r>
       <r>   -14.6796     0.1956     0.1688 </r>
       <r>   -14.6687     2.4118     0.1950 </r>
       <r>   -14.6579     4.0637     0.2391 </r>
       <r>   -14.6470     0.9754     0.2497 </r>
       <r>   -14.6362     0.0302     0.2500 </r>
       <r>   -14.6253     0.0001     0.2500 </r>
       <r>   -14.6145     0.0000     0.2500 </r>
       <r>   -14.6036     0.0000     0.2500 </r>
       <r>   -14.5927     0.0000     0.2500 </r>
       <r>   -14.5819     0.0000     0.2500 </r>
       <r>   -14.5710     0.0000     0.2500 </r>
       <r>   -14.5602     0.0003     0.2500 </r>
       <r>   -14.5493     0.0789     0.2509 </r>
       <r>   -14.5385     2.2471     0.2752 </r>
       <r>   -14.5276     8.3223     0.3656 </r>
       <r>   -14.5168     4.8161     0.4178 </r>
       <r>   -14.5059     5.2900     0.4752 </r>
       <r>   -14.4951     8.0512     0.5626 </r>
       <r>   -14.4842     1.8533     0.5827 </r>
       <r>   -14.4734     0.0549     0.5833 </r>
       <r>   -14.4625     0.0002     0.5833 </r>
       <r>   -14.4517     0.0000     0.5833 </r>
       <r>   -14.4408     0.0004     0.5833 </r>
       <r>   -14.4300     0.0931     0.5843 </r>
       <r>   -14.4191     2.4484     0.6109 </r>
       <r>   -14.4083     8.4972     0.7031 </r>
       <r>   -14.3974     6.4837     0.7735 </r>
       <r>   -14.3865     8.6450     0.8673 </r>
       <r>   -14.3757     4.2522     0.9135 </r>
       <r>   -14.3648     0.3261     0.9170 </r>
       <r>   -14.3540     1.4307     0.9325 </r>
       <r>   -14.3431     7.9675     1.0190 </r>
       <r>   -14.3323    10.5099     1.1331 </r>
       <r>   -14.3214     8.7368     1.2279 </r>
       <r>   -14.3106     1.9762     1.2493 </r>
       <r>   -14.2997     0.0614     1.2500 </r>
       <r>   -14.2889     0.0002     1.2500 </r>
       <r>   -14.2780     0.0000     1.2500 </r>
       <r>   -14.2672     0.0000     1.2500 </r>
       <r>   -14.2563     0.0000     1.2500 </r>
       <r>   -14.2455     0.0000     1.2500 </r>
       <r>   -14.2346     0.0000     1.2500 </r>
       <r>   -14.2238     0.0000     1.2500 </r>
       <r>   -14.2129     0.0009     1.2500 </r>
       <r>   -14.2020     0.1959     1.2521 </r>
       <r>   -14.1912     5.0252     1.3067 </r>
       <r>   -14.1803    16.8703     1.4898 </r>
       <r>   -14.1695     8.0940     1.5776 </r>
       <r>   -14.1586     0.5241     1.5833 </r>
       <r>   -14.1478     0.0040     1.5833 </r>
       <r>   -14.1369     0.0000     1.5833 </r>
       <r>   -14.1261     0.0000     1.5833 </r>
       <r>   -14.1152     0.0000     1.5833 </r>
       <r>   -14.1044     0.0001     1.5833 </r>
       <r>   -14.0935     0.0508     1.5839 </r>
       <r>   -14.0827     2.4191     1.6101 </r>
       <r>   -14.0718    14.5065     1.7676 </r>
       <r>   -14.0610    12.2721     1.9008 </r>
       <r>   -14.0501     1.4449     1.9164 </r>
       <r>   -14.0393     0.0241     1.9167 </r>
       <r>   -14.0284     0.4475     1.9216 </r>
       <r>   -14.0176     7.5280     2.0033 </r>
       <r>   -14.0067    17.0065     2.1878 </r>
       <r>   -13.9958     5.4946     2.2475 </r>
       <r>   -13.9850     0.2336     2.2500 </r>
       <r>   -13.9741     0.0011     2.2500 </r>
       <r>   -13.9633     0.0000     2.2500 </r>
       <r>   -13.9524     0.0000     2.2500 </r>
       <r>   -13.9416     0.0000     2.2500 </r>
       <r>   -13.9307     0.0000     2.2500 </r>
       <r>   -13.9199     0.0000     2.2500 </r>
       <r>   -13.9090     0.0000     2.2500 </r>
       <r>   -13.8982     0.0000     2.2500 </r>
       <r>   -13.8873     0.0000     2.2500 </r>
       <r>   -13.8765     0.0000     2.2500 </r>
       <r>   -13.8656     0.0000     2.2500 </r>
       <r>   -13.8548     0.0000     2.2500 </r>
       <r>   -13.8439     0.0000     2.2500 </r>
       <r>   -13.8331     0.0000     2.2500 </r>
       <r>   -13.8222     0.0000     2.2500 </r>
       <r>   -13.8114     0.0000     2.2500 </r>
       <r>   -13.8005     0.0000     2.2500 </r>
       <r>   -13.7896     0.0000     2.2500 </r>
       <r>   -13.7788     0.0000     2.2500 </r>
       <r>   -13.7679     0.0000     2.2500 </r>
       <r>   -13.7571     0.0000     2.2500 </r>
       <r>   -13.7462     0.0000     2.2500 </r>
       <r>   -13.7354     0.0000     2.2500 </r>
       <r>   -13.7245     0.0000     2.2500 </r>
       <r>   -13.7137     0.0000     2.2500 </r>
       <r>   -13.7028     0.0000     2.2500 </r>
       <r>   -13.6920     0.0000     2.2500 </r>
       <r>   -13.6811     0.0000     2.2500 </r>
       <r>   -13.6703     0.0000     2.2500 </r>
       <r>   -13.6594     0.0000     2.2500 </r>
       <r>   -13.6486     0.0000     2.2500 </r>
       <r>   -13.6377     0.0000     2.2500 </r>
       <r>   -13.6269     0.0000     2.2500 </r>
       <r>   -13.6160     0.0000     2.2500 </r>
       <r>   -13.6052     0.0010     2.2500 </r>
       <r>   -13.5943     0.1660     2.2518 </r>
       <r>   -13.5834     3.2679     2.2873 </r>
       <r>   -13.5726     8.5583     2.3802 </r>
       <r>   -13.5617     3.4763     2.4179 </r>
       <r>   -13.5509     4.2661     2.4642 </r>
       <r>   -13.5400     8.4186     2.5555 </r>
       <r>   -13.5292     2.4655     2.5823 </r>
       <r>   -13.5183     0.0944     2.5833 </r>
       <r>   -13.5075     0.0006     2.5833 </r>
       <r>   -13.4966     0.0471     2.5838 </r>
       <r>   -13.4858     1.7162     2.6025 </r>
       <r>   -13.4749     8.6598     2.6965 </r>
       <r>   -13.4641    11.4320     2.8205 </r>
       <r>   -13.4532     7.6713     2.9038 </r>
       <r>   -13.4424     1.9770     2.9252 </r>
       <r>   -13.4315     6.3869     2.9945 </r>
       <r>   -13.4207     7.0864     3.0715 </r>
       <r>   -13.4098     2.3951     3.0974 </r>
       <r>   -13.3990     7.4115     3.1779 </r>
       <r>   -13.3881     5.9672     3.2426 </r>
       <r>   -13.3772     0.6691     3.2499 </r>
       <r>   -13.3664     0.0092     3.2500 </r>
       <r>   -13.3555     0.0000     3.2500 </r>
       <r>   -13.3447     0.0000     3.2500 </r>
       <r>   -13.3338     0.0000     3.2500 </r>
       <r>   -13.3230     0.0000     3.2500 </r>
       <r>   -13.3121     0.0000     3.2500 </r>
       <r>   -13.3013     0.0000     3.2500 </r>
       <r>   -13.2904     0.0000     3.2500 </r>
       <r>   -13.2796     0.0033     3.2500 </r>
       <r>   -13.2687     0.4605     3.2550 </r>
       <r>   -13.2579     7.8618     3.3404 </r>
       <r>   -13.2470    22.5871     3.5855 </r>
       <r>   -13.2362    22.4451     3.8291 </r>
       <r>   -13.2253     7.6347     3.9119 </r>
       <r>   -13.2145     0.4333     3.9166 </r>
       <r>   -13.2036     0.0031     3.9167 </r>
       <r>   -13.1928     0.0389     3.9171 </r>
       <r>   -13.1819     2.0790     3.9397 </r>
       <r>   -13.1710    13.8735     4.0902 </r>
       <r>   -13.1602    13.7577     4.2395 </r>
       <r>   -13.1493    11.2420     4.3615 </r>
       <r>   -13.1385    17.5293     4.5518 </r>
       <r>   -13.1276    15.3887     4.7188 </r>
       <r>   -13.1168    15.3096     4.8849 </r>
       <r>   -13.1059     3.4821     4.9227 </r>
       <r>   -13.0951     8.8002     5.0182 </r>
       <r>   -13.0842    16.6584     5.1990 </r>
       <r>   -13.0734     4.5368     5.2482 </r>
       <r>   -13.0625     0.1607     5.2500 </r>
       <r>   -13.0517     0.0007     5.2500 </r>
       <r>   -13.0408     0.0000     5.2500 </r>
       <r>   -13.0300     0.0000     5.2500 </r>
       <r>   -13.0191     0.0000     5.2500 </r>
       <r>   -13.0083     0.0000     5.2500 </r>
       <r>   -12.9974     0.0000     5.2500 </r>
       <r>   -12.9865     0.0000     5.2500 </r>
       <r>   -12.9757     0.0000     5.2500 </r>
       <r>   -12.9648     0.0000     5.2500 </r>
       <r>   -12.9540     0.0000     5.2500 </r>
       <r>   -12.9431     0.0000     5.2500 </r>
       <r>   -12.9323     0.0000     5.2500 </r>
       <r>   -12.9214     0.0000     5.2500 </r>
       <r>   -12.9106     0.0000     5.2500 </r>
       <r>   -12.8997     0.0000     5.2500 </r>
       <r>   -12.8889     0.0000     5.2500 </r>
       <r>   -12.8780     0.0000     5.2500 </r>
       <r>   -12.8672     0.0000     5.2500 </r>
       <r>   -12.8563     0.0000     5.2500 </r>
       <r>   -12.8455     0.0000     5.2500 </r>
       <r>   -12.8346     0.0000     5.2500 </r>
       <r>   -12.8238     0.0000     5.2500 </r>
       <r>   -12.8129     0.0000     5.2500 </r>
       <r>   -12.8021     0.0000     5.2500 </r>
       <r>   -12.7912     0.0000     5.2500 </r>
       <r>   -12.7803     0.0000     5.2500 </r>
       <r>   -12.7695     0.0000     5.2500 </r>
       <r>   -12.7586     0.0000     5.2500 </r>
       <r>   -12.7478     0.0000     5.2500 </r>
       <r>   -12.7369     0.0000     5.2500 </r>
       <r>   -12.7261     0.0000     5.2500 </r>
       <r>   -12.7152     0.0000     5.2500 </r>
       <r>   -12.7044     0.0000     5.2500 </r>
       <r>   -12.6935     0.0000     5.2500 </r>
       <r>   -12.6827     0.0000     5.2500 </r>
       <r>   -12.6718     0.0000     5.2500 </r>
       <r>   -12.6610     0.0000     5.2500 </r>
       <r>   -12.6501     0.0000     5.2500 </r>
       <r>   -12.6393     0.0000     5.2500 </r>
       <r>   -12.6284     0.0000     5.2500 </r>
       <r>   -12.6176     0.0186     5.2502 </r>
       <r>   -12.6067     1.0128     5.2612 </r>
       <r>   -12.5959     6.8771     5.3358 </r>
       <r>   -12.5850     6.5589     5.4070 </r>
       <r>   -12.5741     0.8752     5.4165 </r>
       <r>   -12.5633     0.0145     5.4167 </r>
       <r>   -12.5524     0.0000     5.4167 </r>
       <r>   -12.5416     0.0000     5.4167 </r>
       <r>   -12.5307     0.0000     5.4167 </r>
       <r>   -12.5199     0.0000     5.4167 </r>
       <r>   -12.5090     0.0000     5.4167 </r>
       <r>   -12.4982     0.0000     5.4167 </r>
       <r>   -12.4873     0.0032     5.4167 </r>
       <r>   -12.4765     0.3525     5.4205 </r>
       <r>   -12.4656     4.6140     5.4706 </r>
       <r>   -12.4548     8.2267     5.5599 </r>
       <r>   -12.4439     2.0917     5.5826 </r>
       <r>   -12.4331     0.0689     5.5833 </r>
       <r>   -12.4222     0.0289     5.5836 </r>
       <r>   -12.4114     1.2948     5.5977 </r>
       <r>   -12.4005     7.5886     5.6801 </r>
       <r>   -12.3897    11.0962     5.8005 </r>
       <r>   -12.3788    19.2641     6.0095 </r>
       <r>   -12.3679    12.3611     6.1437 </r>
       <r>   -12.3571     2.0409     6.1658 </r>
       <r>   -12.3462     0.0757     6.1667 </r>
       <r>   -12.3354     0.0786     6.1675 </r>
       <r>   -12.3245     3.0803     6.2009 </r>
       <r>   -12.3137    15.4585     6.3687 </r>
       <r>   -12.3028    11.0262     6.4884 </r>
       <r>   -12.2920     2.8337     6.5191 </r>
       <r>   -12.2811    18.5608     6.7206 </r>
       <r>   -12.2703    31.6052     7.0636 </r>
       <r>   -12.2594     9.0992     7.1623 </r>
       <r>   -12.2486     0.3986     7.1666 </r>
       <r>   -12.2377     0.0022     7.1667 </r>
       <r>   -12.2269     0.0000     7.1667 </r>
       <r>   -12.2160     0.0000     7.1667 </r>
       <r>   -12.2052     0.0000     7.1667 </r>
       <r>   -12.1943     0.0000     7.1667 </r>
       <r>   -12.1835     0.0001     7.1667 </r>
       <r>   -12.1726     0.0326     7.1670 </r>
       <r>   -12.1617     1.8742     7.1874 </r>
       <r>   -12.1509    13.4216     7.3330 </r>
       <r>   -12.1400    13.8008     7.4828 </r>
       <r>   -12.1292     4.8876     7.5358 </r>
       <r>   -12.1183     3.7306     7.5763 </r>
       <r>   -12.1075     1.5804     7.5935 </r>
       <r>   -12.0966    10.4165     7.7065 </r>
       <r>   -12.0858    15.9157     7.8793 </r>
       <r>   -12.0749     5.6289     7.9403 </r>
       <r>   -12.0641     8.3886     8.0314 </r>
       <r>   -12.0532     4.6286     8.0816 </r>
       <r>   -12.0424     3.6227     8.1209 </r>
       <r>   -12.0315     8.5585     8.2138 </r>
       <r>   -12.0207     3.1770     8.2483 </r>
       <r>   -12.0098     0.1567     8.2500 </r>
       <r>   -11.9990     0.0009     8.2500 </r>
       <r>   -11.9881     0.0025     8.2500 </r>
       <r>   -11.9773     0.3038     8.2533 </r>
       <r>   -11.9664     4.3606     8.3006 </r>
       <r>   -11.9555     9.4388     8.4031 </r>
       <r>   -11.9447     6.4425     8.4730 </r>
       <r>   -11.9338     2.3278     8.4983 </r>
       <r>   -11.9230     0.7108     8.5060 </r>
       <r>   -11.9121     5.5253     8.5659 </r>
       <r>   -11.9013     7.7143     8.6497 </r>
       <r>   -11.8904     1.5278     8.6662 </r>
       <r>   -11.8796     0.0444     8.6667 </r>
       <r>   -11.8687     0.6631     8.6739 </r>
       <r>   -11.8579     8.9857     8.7714 </r>
       <r>   -11.8470    16.5576     8.9511 </r>
       <r>   -11.8362     4.3532     8.9984 </r>
       <r>   -11.8253     0.1486     9.0000 </r>
       <r>   -11.8145     0.0167     9.0002 </r>
       <r>   -11.8036     0.9331     9.0103 </r>
       <r>   -11.7928     6.6994     9.0830 </r>
       <r>   -11.7819     6.8437     9.1573 </r>
       <r>   -11.7710     4.5267     9.2064 </r>
       <r>   -11.7602    15.9975     9.3800 </r>
       <r>   -11.7493    10.1663     9.4904 </r>
       <r>   -11.7385     1.5977     9.5077 </r>
       <r>   -11.7276     9.2754     9.6084 </r>
       <r>   -11.7168    16.4363     9.7867 </r>
       <r>   -11.7059     4.1571     9.8319 </r>
       <r>   -11.6951     0.1361     9.8333 </r>
       <r>   -11.6842     0.0005     9.8333 </r>
       <r>   -11.6734     0.0000     9.8333 </r>
       <r>   -11.6625     0.0000     9.8333 </r>
       <r>   -11.6517     0.0000     9.8333 </r>
       <r>   -11.6408     0.0011     9.8333 </r>
       <r>   -11.6300     0.1769     9.8353 </r>
       <r>   -11.6191     3.3687     9.8718 </r>
       <r>   -11.6083     8.5528     9.9646 </r>
       <r>   -11.5974     3.1072     9.9984 </r>
       <r>   -11.5866     0.1816    10.0003 </r>
       <r>   -11.5757     1.3779    10.0153 </r>
       <r>   -11.5648     7.5154    10.0969 </r>
       <r>   -11.5540     5.8035    10.1598 </r>
       <r>   -11.5431     0.6211    10.1666 </r>
       <r>   -11.5323     0.0419    10.1670 </r>
       <r>   -11.5214     1.9150    10.1878 </r>
       <r>   -11.5106    13.5093    10.3344 </r>
       <r>   -11.4997    13.3695    10.4795 </r>
       <r>   -11.4889     1.8546    10.4997 </r>
       <r>   -11.4780     0.0320    10.5000 </r>
       <r>   -11.4672     0.0003    10.5000 </r>
       <r>   -11.4563     0.0885    10.5010 </r>
       <r>   -11.4455     3.2975    10.5367 </r>
       <r>   -11.4346    15.7048    10.7072 </r>
       <r>   -11.4238    10.6232    10.8225 </r>
       <r>   -11.4129     0.9890    10.8332 </r>
       <r>   -11.4021     0.0112    10.8333 </r>
       <r>   -11.3912     0.0000    10.8333 </r>
       <r>   -11.3804     0.0000    10.8333 </r>
       <r>   -11.3695     0.0000    10.8333 </r>
       <r>   -11.3586     0.0101    10.8334 </r>
       <r>   -11.3478     0.9303    10.8435 </r>
       <r>   -11.3369    10.3645    10.9560 </r>
       <r>   -11.3261    15.8702    11.1283 </r>
       <r>   -11.3152     4.2558    11.1744 </r>
       <r>   -11.3044     9.8594    11.2814 </r>
       <r>   -11.2935    16.1959    11.4572 </r>
       <r>   -11.2827     3.8258    11.4987 </r>
       <r>   -11.2718     0.1164    11.5000 </r>
       <r>   -11.2610     0.0004    11.5000 </r>
       <r>   -11.2501     0.0000    11.5000 </r>
       <r>   -11.2393     0.0000    11.5000 </r>
       <r>   -11.2284     0.0000    11.5000 </r>
       <r>   -11.2176     0.0000    11.5000 </r>
       <r>   -11.2067     0.0000    11.5000 </r>
       <r>   -11.1959     0.0000    11.5000 </r>
       <r>   -11.1850     0.0000    11.5000 </r>
       <r>   -11.1742     0.0000    11.5000 </r>
       <r>   -11.1633     0.0000    11.5000 </r>
       <r>   -11.1524     0.0000    11.5000 </r>
       <r>   -11.1416     0.0000    11.5000 </r>
       <r>   -11.1307     0.0000    11.5000 </r>
       <r>   -11.1199     0.0000    11.5000 </r>
       <r>   -11.1090     0.0000    11.5000 </r>
       <r>   -11.0982     0.0000    11.5000 </r>
       <r>   -11.0873     0.0000    11.5000 </r>
       <r>   -11.0765     0.0000    11.5000 </r>
       <r>   -11.0656     0.0002    11.5000 </r>
       <r>   -11.0548     0.0478    11.5005 </r>
       <r>   -11.0439     1.7201    11.5192 </r>
       <r>   -11.0331     7.9258    11.6052 </r>
       <r>   -11.0222     5.1912    11.6615 </r>
       <r>   -11.0114     0.4671    11.6666 </r>
       <r>   -11.0005     0.0051    11.6667 </r>
       <r>   -10.9897     0.0000    11.6667 </r>
       <r>   -10.9788     0.0000    11.6667 </r>
       <r>   -10.9680     0.0000    11.6667 </r>
       <r>   -10.9571     0.0000    11.6667 </r>
       <r>   -10.9462     0.0000    11.6667 </r>
       <r>   -10.9354     0.0000    11.6667 </r>
       <r>   -10.9245     0.0000    11.6667 </r>
       <r>   -10.9137     0.0000    11.6667 </r>
       <r>   -10.9028     0.0000    11.6667 </r>
       <r>   -10.8920     0.0000    11.6667 </r>
       <r>   -10.8811     0.0000    11.6667 </r>
       <r>   -10.8703     0.0000    11.6667 </r>
       <r>   -10.8594     0.0000    11.6667 </r>
       <r>   -10.8486     0.0000    11.6667 </r>
       <r>   -10.8377     0.0000    11.6667 </r>
       <r>   -10.8269     0.0001    11.6667 </r>
       <r>   -10.8160     0.0333    11.6670 </r>
       <r>   -10.8052     1.4083    11.6823 </r>
       <r>   -10.7943     7.5593    11.7644 </r>
       <r>   -10.7835     5.7441    11.8267 </r>
       <r>   -10.7726     0.6043    11.8332 </r>
       <r>   -10.7618     0.0078    11.8333 </r>
       <r>   -10.7509     0.0000    11.8333 </r>
       <r>   -10.7400     0.0000    11.8333 </r>
       <r>   -10.7292     0.0000    11.8333 </r>
       <r>   -10.7183     0.0000    11.8333 </r>
       <r>   -10.7075     0.0000    11.8333 </r>
       <r>   -10.6966     0.0000    11.8333 </r>
       <r>   -10.6858     0.0000    11.8333 </r>
       <r>   -10.6749     0.0000    11.8333 </r>
       <r>   -10.6641     0.0000    11.8333 </r>
       <r>   -10.6532     0.0000    11.8333 </r>
       <r>   -10.6424     0.0172    11.8335 </r>
       <r>   -10.6315     0.9690    11.8440 </r>
       <r>   -10.6207     6.7814    11.9176 </r>
       <r>   -10.6098     6.6581    11.9899 </r>
       <r>   -10.5990     0.9157    11.9998 </r>
       <r>   -10.5881     0.0156    12.0000 </r>
       <r>   -10.5773     0.0000    12.0000 </r>
       <r>   -10.5664     0.0000    12.0000 </r>
       <r>   -10.5555     0.0000    12.0000 </r>
       <r>   -10.5447     0.0000    12.0000 </r>
       <r>   -10.5338     0.0000    12.0000 </r>
       <r>   -10.5230     0.0000    12.0000 </r>
       <r>   -10.5121     0.0000    12.0000 </r>
       <r>   -10.5013     0.0000    12.0000 </r>
       <r>   -10.4904     0.0000    12.0000 </r>
       <r>   -10.4796     0.0000    12.0000 </r>
       <r>   -10.4687     0.0000    12.0000 </r>
       <r>   -10.4579     0.0000    12.0000 </r>
       <r>   -10.4470     0.0000    12.0000 </r>
       <r>   -10.4362     0.0000    12.0000 </r>
       <r>   -10.4253     0.0000    12.0000 </r>
       <r>   -10.4145     0.0000    12.0000 </r>
       <r>   -10.4036     0.0000    12.0000 </r>
       <r>   -10.3928     0.0000    12.0000 </r>
       <r>   -10.3819     0.0000    12.0000 </r>
       <r>   -10.3711     0.0000    12.0000 </r>
       <r>   -10.3602     0.0000    12.0000 </r>
       <r>   -10.3493     0.0000    12.0000 </r>
       <r>   -10.3385     0.0000    12.0000 </r>
       <r>   -10.3276     0.0000    12.0000 </r>
       <r>   -10.3168     0.0000    12.0000 </r>
       <r>   -10.3059     0.0000    12.0000 </r>
       <r>   -10.2951     0.0000    12.0000 </r>
       <r>   -10.2842     0.0000    12.0000 </r>
       <r>   -10.2734     0.0001    12.0000 </r>
       <r>   -10.2625     0.0251    12.0003 </r>
       <r>   -10.2517     1.2027    12.0133 </r>
       <r>   -10.2408     7.2415    12.0919 </r>
       <r>   -10.2300     6.1501    12.1587 </r>
       <r>   -10.2191     0.7270    12.1666 </r>
       <r>   -10.2083     0.0106    12.1667 </r>
       <r>   -10.1974     0.0000    12.1667 </r>
       <r>   -10.1866     0.0057    12.1667 </r>
       <r>   -10.1757     0.4993    12.1721 </r>
       <r>   -10.1649     5.3330    12.2300 </r>
       <r>   -10.1540     7.9974    12.3168 </r>
       <r>   -10.1431     4.8258    12.3692 </r>
       <r>   -10.1323     8.5996    12.4625 </r>
       <r>   -10.1214     3.2848    12.4982 </r>
       <r>   -10.1106     0.1678    12.5000 </r>
       <r>   -10.0997     0.0010    12.5000 </r>
       <r>   -10.0889     0.0000    12.5000 </r>
       <r>   -10.0780     0.0000    12.5000 </r>
       <r>   -10.0672     0.0000    12.5000 </r>
       <r>   -10.0563     0.0000    12.5000 </r>
       <r>   -10.0455     0.0000    12.5000 </r>
       <r>   -10.0346     0.0000    12.5000 </r>
       <r>   -10.0238     0.0000    12.5000 </r>
       <r>   -10.0129     0.0000    12.5000 </r>
       <r>   -10.0021     0.0000    12.5000 </r>
       <r>    -9.9912     0.0000    12.5000 </r>
       <r>    -9.9804     0.0000    12.5000 </r>
       <r>    -9.9695     0.0000    12.5000 </r>
       <r>    -9.9587     0.0000    12.5000 </r>
       <r>    -9.9478     0.0000    12.5000 </r>
       <r>    -9.9369     0.0000    12.5000 </r>
       <r>    -9.9261     0.0000    12.5000 </r>
       <r>    -9.9152     0.0000    12.5000 </r>
       <r>    -9.9044     0.0000    12.5000 </r>
       <r>    -9.8935     0.0000    12.5000 </r>
       <r>    -9.8827     0.0000    12.5000 </r>
       <r>    -9.8718     0.0000    12.5000 </r>
       <r>    -9.8610     0.0000    12.5000 </r>
       <r>    -9.8501     0.0000    12.5000 </r>
       <r>    -9.8393     0.0000    12.5000 </r>
       <r>    -9.8284     0.0000    12.5000 </r>
       <r>    -9.8176     0.0000    12.5000 </r>
       <r>    -9.8067     0.0000    12.5000 </r>
       <r>    -9.7959     0.0000    12.5000 </r>
       <r>    -9.7850     0.0000    12.5000 </r>
       <r>    -9.7742     0.0107    12.5001 </r>
       <r>    -9.7633     0.9643    12.5106 </r>
       <r>    -9.7525    10.5160    12.6247 </r>
       <r>    -9.7416    15.7710    12.7959 </r>
       <r>    -9.7307     3.3605    12.8323 </r>
       <r>    -9.7199     0.0916    12.8333 </r>
       <r>    -9.7090     0.0003    12.8333 </r>
       <r>    -9.6982     0.0000    12.8333 </r>
       <r>    -9.6873     0.0000    12.8333 </r>
       <r>    -9.6765     0.0000    12.8333 </r>
       <r>    -9.6656     0.0000    12.8333 </r>
       <r>    -9.6548     0.0000    12.8333 </r>
       <r>    -9.6439     0.0000    12.8333 </r>
       <r>    -9.6331     0.0000    12.8333 </r>
       <r>    -9.6222     0.0001    12.8333 </r>
       <r>    -9.6114     0.0423    12.8338 </r>
       <r>    -9.6005     2.1788    12.8574 </r>
       <r>    -9.5897    14.0670    13.0101 </r>
       <r>    -9.5788    12.7797    13.1488 </r>
       <r>    -9.5680     1.6210    13.1664 </r>
       <r>    -9.5571     0.0262    13.1667 </r>
       <r>    -9.5463     0.1438    13.1682 </r>
       <r>    -9.5354     3.0458    13.2013 </r>
       <r>    -9.5245     8.5487    13.2941 </r>
       <r>    -9.5137     3.4331    13.3313 </r>
       <r>    -9.5028     0.2088    13.3336 </r>
       <r>    -9.4920     1.6043    13.3510 </r>
       <r>    -9.4811    13.2001    13.4943 </r>
       <r>    -9.4703    21.8248    13.7311 </r>
       <r>    -9.4594    19.1226    13.9386 </r>
       <r>    -9.4486     5.6183    13.9996 </r>
       <r>    -9.4377     5.2273    14.0564 </r>
       <r>    -9.4269    16.8630    14.2394 </r>
       <r>    -9.4160     8.3126    14.3296 </r>
       <r>    -9.4052     3.9737    14.3727 </r>
       <r>    -9.3943     8.5518    14.4655 </r>
       <r>    -9.3835     3.0346    14.4984 </r>
       <r>    -9.3726     0.1426    14.5000 </r>
       <r>    -9.3618     0.0008    14.5000 </r>
       <r>    -9.3509     0.0000    14.5000 </r>
       <r>    -9.3401     0.0000    14.5000 </r>
       <r>    -9.3292     0.0000    14.5000 </r>
       <r>    -9.3183     0.0000    14.5000 </r>
       <r>    -9.3075     0.0000    14.5000 </r>
       <r>    -9.2966     0.0146    14.5002 </r>
       <r>    -9.2858     1.1634    14.5128 </r>
       <r>    -9.2749    11.3219    14.6357 </r>
       <r>    -9.2641    15.2385    14.8010 </r>
       <r>    -9.2532     2.9055    14.8326 </r>
       <r>    -9.2424     0.0703    14.8333 </r>
       <r>    -9.2315     0.0002    14.8333 </r>
       <r>    -9.2207     0.0000    14.8333 </r>
       <r>    -9.2098     0.0012    14.8333 </r>
       <r>    -9.1990     0.2435    14.8360 </r>
       <r>    -9.1881     5.7452    14.8983 </r>
       <r>    -9.1773    20.0823    15.1163 </r>
       <r>    -9.1664    15.9549    15.2894 </r>
       <r>    -9.1556     3.8572    15.3313 </r>
       <r>    -9.1447     0.1861    15.3333 </r>
       <r>    -9.1338     0.0011    15.3333 </r>
       <r>    -9.1230     0.0000    15.3333 </r>
       <r>    -9.1121     0.0000    15.3333 </r>
       <r>    -9.1013     0.0000    15.3333 </r>
       <r>    -9.0904     0.0000    15.3333 </r>
       <r>    -9.0796     0.0000    15.3333 </r>
       <r>    -9.0687     0.0006    15.3333 </r>
       <r>    -9.0579     0.1528    15.3350 </r>
       <r>    -9.0470     4.4176    15.3829 </r>
       <r>    -9.0362    16.5945    15.5630 </r>
       <r>    -9.0253     8.9771    15.6605 </r>
       <r>    -9.0145     3.7905    15.7016 </r>
       <r>    -9.0036    15.5219    15.8701 </r>
       <r>    -8.9928    10.9017    15.9884 </r>
       <r>    -8.9819     1.0595    15.9999 </r>
       <r>    -8.9711     0.0125    16.0000 </r>
       <r>    -8.9602     0.0000    16.0000 </r>
       <r>    -8.9494     0.0000    16.0000 </r>
       <r>    -8.9385     0.0000    16.0000 </r>
       <r>    -8.9276     0.0005    16.0000 </r>
       <r>    -8.9168     0.1002    16.0011 </r>
       <r>    -8.9059     2.6718    16.0301 </r>
       <r>    -8.8951    12.6155    16.1670 </r>
       <r>    -8.8842    20.4658    16.3891 </r>
       <r>    -8.8734     9.5066    16.4923 </r>
       <r>    -8.8625     1.1732    16.5050 </r>
       <r>    -8.8517     5.6552    16.5664 </r>
       <r>    -8.8408    14.7474    16.7264 </r>
       <r>    -8.8300    17.6060    16.9175 </r>
       <r>    -8.8191     7.0650    16.9942 </r>
       <r>    -8.8083     0.5305    16.9999 </r>
       <r>    -8.7974     0.0213    17.0002 </r>
       <r>    -8.7866     1.2221    17.0134 </r>
       <r>    -8.7757    11.5364    17.1386 </r>
       <r>    -8.7649    15.0833    17.3023 </r>
       <r>    -8.7540     2.7921    17.3326 </r>
       <r>    -8.7432     0.2177    17.3350 </r>
       <r>    -8.7323     3.1332    17.3690 </r>
       <r>    -8.7214     8.5541    17.4618 </r>
       <r>    -8.7106     3.3420    17.4981 </r>
       <r>    -8.6997     0.1740    17.5000 </r>
       <r>    -8.6889     0.0064    17.5001 </r>
       <r>    -8.6780     0.6295    17.5069 </r>
       <r>    -8.6672     8.7847    17.6022 </r>
[...]
        <r>  0.0000  0.0019  0.0033  0.0292  0.0000  0.0000  0.0000  0.0000  0.0000 </r>
        <r>  0.0000  0.0191  0.0340  0.0029  0.0000  0.0000  0.0000  0.0000  0.0000 </r>
        <r>  0.0000  0.0019  0.0033  0.0292  0.0000  0.0000  0.0000  0.0000  0.0000 </r>
        <r>  0.0000  0.0191  0.0340  0.0029  0.0000  0.0000  0.0000  0.0000  0.0000 </r>
        <r>  0.0269  0.0037  0.0121  0.0007  0.0000  0.0000  0.0000  0.0000  0.0000 </r>
        <r>  0.0026  0.0004  0.0012  0.0071  0.0000  0.0000  0.0000  0.0000  0.0000 </r>
        <r>  0.0284  0.0063  0.0203  0.0013  0.0000  0.0000  0.0000  0.0000  0.0000 </r>
        <r>  0.0028  0.0006  0.0020  0.0134  0.0000  0.0000  0.0000  0.0000  0.0000 </r>
       </set>
       <set comment="band 25">
        <r>  0.0002  0.0025  0.0011  0.0001  0.0000  0.0000  0.0000  0.0000  0.0000 </r>
        <r>  0.0000  0.0002  0.0001  0.0007  0.0000  0.0000  0.0000  0.0000  0.0000 </r>
        <r>  0.0005  0.0001  0.0021  0.0001  0.0000  0.0000  0.0000  0.0000  0.0000 </r>
        <r>  0.0000  0.0000  0.0002  0.0014  0.0000  0.0000  0.0000  0.0000  0.0000 </r>
        <r>  0.0018  0.0136  0.0020  0.0175  0.0000  0.0000  0.0000  0.0000  0.0000 </r>
        <r>  0.0182  0.1396  0.0201  0.0017  0.0000  0.0000  0.0000  0.0000  0.0000 </r>
        <r>  0.0018  0.0136  0.0020  0.0175  0.0000  0.0000  0.0000  0.0000  0.0000 </r>
        <r>  0.0182  0.1396  0.0201  0.0017  0.0000  0.0000  0.0000  0.0000  0.0000 </r>
        <r>  0.0005  0.0001  0.0021  0.0001  0.0000  0.0000  0.0000  0.0000  0.0000 </r>
        <r>  0.0000  0.0000  0.0002  0.0014  0.0000  0.0000  0.0000  0.0000  0.0000 </r>
        <r>  0.0002  0.0025  0.0011  0.0001  0.0000  0.0000  0.0000  0.0000  0.0000 </r>
        <r>  0.0000  0.0002  0.0001  0.0007  0.0000  0.0000  0.0000  0.0000  0.0000 </r>
       </set>
       <set comment="band 26">
        <r>  0.0000  0.0002  0.0001  0.0007  0.0000  0.0000  0.0000  0.0000  0.0000 </r>
        <r>  0.0002  0.0025  0.0011  0.0001  0.0000  0.0000  0.0000  0.0000  0.0000 </r>
        <r>  0.0000  0.0000  0.0002  0.0014  0.0000  0.0000  0.0000  0.0000  0.0000 </r>
        <r>  0.0005  0.0001  0.0021  0.0001  0.0000  0.0000  0.0000  0.0000  0.0000 </r>
        <r>  0.0182  0.1396  0.0201  0.0017  0.0000  0.0000  0.0000  0.0000  0.0000 </r>
        <r>  0.0018  0.0136  0.0020  0.0175  0.0000  0.0000  0.0000  0.0000  0.0000 </r>
        <r>  0.0182  0.1396  0.0201  0.0017  0.0000  0.0000  0.0000  0.0000  0.0000 </r>
        <r>  0.0018  0.0136  0.0020  0.0175  0.0000  0.0000  0.0000  0.0000  0.0000 </r>
        <r>  0.0000  0.0000  0.0002  0.0014  0.0000  0.0000  0.0000  0.0000  0.0000 </r>
        <r>  0.0005  0.0001  0.0021  0.0001  0.0000  0.0000  0.0000  0.0000  0.0000 </r>
        <r>  0.0000  0.0002  0.0001  0.0007  0.0000  0.0000  0.0000  0.0000  0.0000 </r>
        <r>  0.0002  0.0025  0.0011  0.0001  0.0000  0.0000  0.0000  0.0000  0.0000 </r>
       </set>
       <set comment="band 27">
        <r>  0.0037  0.0228  0.0037  0.0076  0.0000  0.0000  0.0000  0.0000  0.0000 </r>
        <r>  0.0089  0.0552  0.0089  0.0031  0.0000  0.0000  0.0000  0.0000  0.0000 </r>
        <r>  0.0024  0.0228  0.0029  0.0064  0.0000  0.0000  0.0000  0.0000  0.0000 </r>
        <r>  0.0057  0.0550  0.0071  0.0026  0.0000  0.0000  0.0000  0.0000  0.0000 </r>
        <r>  0.0005  0.0015  0.0001  0.0000  0.0000  0.0000  0.0000  0.0000  0.0000 </r>
        <r>  0.0002  0.0006  0.0000  0.0000  0.0000  0.0000  0.0000  0.0000  0.0000 </r>
        <r>  0.0005  0.0015  0.0001  0.0000  0.0000  0.0000  0.0000  0.0000  0.0000 </r>
        <r>  0.0002  0.0006  0.0000  0.0000  0.0000  0.0000  0.0000  0.0000  0.0000 </r>
        <r>  0.0024  0.0228  0.0029  0.0064  0.0000  0.0000  0.0000  0.0000  0.0000 </r>
        <r>  0.0057  0.0550  0.0071  0.0026  0.0000  0.0000  0.0000  0.0000  0.0000 </r>
        <r>  0.0037  0.0228  0.0037  0.0076  0.0000  0.0000  0.0000  0.0000  0.0000 </r>
        <r>  0.0089  0.0552  0.0089  0.0031  0.0000  0.0000  0.0000  0.0000  0.0000 </r>
       </set>
       <set comment="band 28">
        <r>  0.0089  0.0552  0.0089  0.0031  0.0000  0.0000  0.0000  0.0000  0.0000 </r>
        <r>  0.0037  0.0228  0.0037  0.0076  0.0000  0.0000  0.0000  0.0000  0.0000 </r>
        <r>  0.0057  0.0550  0.0071  0.0026  0.0000  0.0000  0.0000  0.0000  0.0000 </r>
        <r>  0.0024  0.0228  0.0029  0.0064  0.0000  0.0000  0.0000  0.0000  0.0000 </r>
        <r>  0.0002  0.0006  0.0000  0.0000  0.0000  0.0000  0.0000  0.0000  0.0000 </r>
        <r>  0.0005  0.0015  0.0001  0.0000  0.0000  0.0000  0.0000  0.0000  0.0000 </r>
        <r>  0.0002  0.0006  0.0000  0.0000  0.0000  0.0000  0.0000  0.0000  0.0000 </r>
        <r>  0.0005  0.0015  0.0001  0.0000  0.0000  0.0000  0.0000  0.0000  0.0000 </r>
        <r>  0.0057  0.0550  0.0071  0.0026  0.0000  0.0000  0.0000  0.0000  0.0000 </r>
        <r>  0.0024  0.0228  0.0029  0.0064  0.0000  0.0000  0.0000  0.0000  0.0000 </r>
        <r>  0.0089  0.0552  0.0089  0.0031  0.0000  0.0000  0.0000  0.0000  0.0000 </r>
        <r>  0.0037  0.0228  0.0037  0.0076  0.0000  0.0000  0.0000  0.0000  0.0000 </r>
       </set>
       <set comment="band 29">
        <r>  0.0104  0.0725  0.0111  0.0010  0.0000  0.0000  0.0000  0.0000  0.0000 </r>
        <r>  0.0010  0.0072  0.0011  0.0096  0.0000  0.0000  0.0000  0.0000  0.0000 </r>
        <r>  0.0095  0.0726  0.0106  0.0009  0.0000  0.0000  0.0000  0.0000  0.0000 </r>
        <r>  0.0009  0.0072  0.0011  0.0092  0.0000  0.0000  0.0000  0.0000  0.0000 </r>
        <r>  0.0000  0.0001  0.0003  0.0020  0.0000  0.0000  0.0000  0.0000  0.0000 </r>
        <r>  0.0000  0.0007  0.0031  0.0002  0.0000  0.0000  0.0000  0.0000  0.0000 </r>
        <r>  0.0000  0.0001  0.0003  0.0020  0.0000  0.0000  0.0000  0.0000  0.0000 </r>
        <r>  0.0000  0.0007  0.0031  0.0002  0.0000  0.0000  0.0000  0.0000  0.0000 </r>
        <r>  0.0095  0.0726  0.0106  0.0009  0.0000  0.0000  0.0000  0.0000  0.0000 </r>
        <r>  0.0009  0.0072  0.0011  0.0092  0.0000  0.0000  0.0000  0.0000  0.0000 </r>
        <r>  0.0104  0.0725  0.0111  0.0010  0.0000  0.0000  0.0000  0.0000  0.0000 </r>
        <r>  0.0010  0.0072  0.0011  0.0096  0.0000  0.0000  0.0000  0.0000  0.0000 </r>
       </set>
       <set comment="band 30">
        <r>  0.0010  0.0072  0.0011  0.0096  0.0000  0.0000  0.0000  0.0000  0.0000 </r>
        <r>  0.0104  0.0725  0.0111  0.0010  0.0000  0.0000  0.0000  0.0000  0.0000 </r>
        <r>  0.0009  0.0072  0.0011  0.0092  0.0000  0.0000  0.0000  0.0000  0.0000 </r>
        <r>  0.0095  0.0726  0.0106  0.0009  0.0000  0.0000  0.0000  0.0000  0.0000 </r>
        <r>  0.0000  0.0007  0.0031  0.0002  0.0000  0.0000  0.0000  0.0000  0.0000 </r>
        <r>  0.0000  0.0001  0.0003  0.0020  0.0000  0.0000  0.0000  0.0000  0.0000 </r>
        <r>  0.0000  0.0007  0.0031  0.0002  0.0000  0.0000  0.0000  0.0000  0.0000 </r>
        <r>  0.0000  0.0001  0.0003  0.0020  0.0000  0.0000  0.0000  0.0000  0.0000 </r>
        <r>  0.0009  0.0072  0.0011  0.0092  0.0000  0.0000  0.0000  0.0000  0.0000 </r>
        <r>  0.0095  0.0726  0.0106  0.0009  0.0000  0.0000  0.0000  0.0000  0.0000 </r>
        <r>  0.0010  0.0072  0.0011  0.0096  0.0000  0.0000  0.0000  0.0000  0.0000 </r>
        <r>  0.0104  0.0725  0.0111  0.0010  0.0000  0.0000  0.0000  0.0000  0.0000 </r>
       </set>
       <set comment="band 31">
        <r>  0.0009  0.0035  0.0003  0.0029  0.0000  0.0000  0.0000  0.0000  0.0000 </r>
        <r>  0.0104  0.0432  0.0031  0.0002  0.0000  0.0000  0.0000  0.0000  0.0000 </r>
        <r>  0.0008  0.0036  0.0001  0.0021  0.0000  0.0000  0.0000  0.0000  0.0000 </r>
        <r>  0.0097  0.0444  0.0013  0.0002  0.0000  0.0000  0.0000  0.0000  0.0000 </r>
        <r>  0.0061  0.0052  0.0008  0.0000  0.0000  0.0000  0.0000  0.0000  0.0000 </r>
        <r>  0.0005  0.0004  0.0001  0.0004  0.0000  0.0000  0.0000  0.0000  0.0000 </r>
        <r>  0.0061  0.0052  0.0008  0.0000  0.0000  0.0000  0.0000  0.0000  0.0000 </r>
        <r>  0.0005  0.0004  0.0001  0.0004  0.0000  0.0000  0.0000  0.0000  0.0000 </r>
        <r>  0.0008  0.0036  0.0001  0.0021  0.0000  0.0000  0.0000  0.0000  0.0000 </r>
        <r>  0.0097  0.0444  0.0013  0.0002  0.0000  0.0000  0.0000  0.0000  0.0000 </r>
        <r>  0.0009  0.0035  0.0003  0.0029  0.0000  0.0000  0.0000  0.0000  0.0000 </r>
        <r>  0.0104  0.0432  0.0031  0.0002  0.0000  0.0000  0.0000  0.0000  0.0000 </r>
       </set>
       <set comment="band 32">
        <r>  0.0104  0.0432  0.0031  0.0002  0.0000  0.0000  0.0000  0.0000  0.0000 </r>
        <r>  0.0009  0.0035  0.0003  0.0029  0.0000  0.0000  0.0000  0.0000  0.0000 </r>
        <r>  0.0097  0.0444  0.0013  0.0002  0.0000  0.0000  0.0000  0.0000  0.0000 </r>
        <r>  0.0008  0.0036  0.0001  0.0021  0.0000  0.0000  0.0000  0.0000  0.0000 </r>
        <r>  0.0005  0.0004  0.0001  0.0004  0.0000  0.0000  0.0000  0.0000  0.0000 </r>
        <r>  0.0061  0.0052  0.0008  0.0000  0.0000  0.0000  0.0000  0.0000  0.0000 </r>
        <r>  0.0005  0.0004  0.0001  0.0004  0.0000  0.0000  0.0000  0.0000  0.0000 </r>
        <r>  0.0061  0.0052  0.0008  0.0000  0.0000  0.0000  0.0000  0.0000  0.0000 </r>
        <r>  0.0097  0.0444  0.0013  0.0002  0.0000  0.0000  0.0000  0.0000  0.0000 </r>
        <r>  0.0008  0.0036  0.0001  0.0021  0.0000  0.0000  0.0000  0.0000  0.0000 </r>
        <r>  0.0104  0.0432  0.0031  0.0002  0.0000  0.0000  0.0000  0.0000  0.0000 </r>
        <r>  0.0009  0.0035  0.0003  0.0029  0.0000  0.0000  0.0000  0.0000  0.0000 </r>
       </set>
       <set comment="band 33">
        <r>  0.0001  0.0032  0.0001  0.0002  0.0000  0.0000  0.0000  0.0000  0.0000 </r>
        <r>  0.0003  0.0109  0.0003  0.0000  0.0000  0.0000  0.0000  0.0000  0.0000 </r>
        <r>  0.0020  0.0000  0.0009  0.0014  0.0000  0.0000  0.0000  0.0000  0.0000 </r>
        <r>  0.0068  0.0000  0.0031  0.0004  0.0000  0.0000  0.0000  0.0000  0.0000 </r>
        <r>  0.0171  0.0750  0.0040  0.0013  0.0000  0.0000  0.0000  0.0000  0.0000 </r>
        <r>  0.0050  0.0218  0.0012  0.0046  0.0000  0.0000  0.0000  0.0000  0.0000 </r>
        <r>  0.0171  0.0750  0.0040  0.0013  0.0000  0.0000  0.0000  0.0000  0.0000 </r>
        <r>  0.0050  0.0218  0.0012  0.0046  0.0000  0.0000  0.0000  0.0000  0.0000 </r>
        <r>  0.0020  0.0000  0.0009  0.0014  0.0000  0.0000  0.0000  0.0000  0.0000 </r>
        <r>  0.0068  0.0000  0.0031  0.0004  0.0000  0.0000  0.0000  0.0000  0.0000 </r>
        <r>  0.0001  0.0032  0.0001  0.0002  0.0000  0.0000  0.0000  0.0000  0.0000 </r>
        <r>  0.0003  0.0109  0.0003  0.0000  0.0000  0.0000  0.0000  0.0000  0.0000 </r>
       </set>
       <set comment="band 34">
        <r>  0.0003  0.0109  0.0003  0.0000  0.0000  0.0000  0.0000  0.0000  0.0000 </r>
        <r>  0.0001  0.0032  0.0001  0.0002  0.0000  0.0000  0.0000  0.0000  0.0000 </r>
        <r>  0.0068  0.0000  0.0031  0.0004  0.0000  0.0000  0.0000  0.0000  0.0000 </r>
        <r>  0.0020  0.0000  0.0009  0.0014  0.0000  0.0000  0.0000  0.0000  0.0000 </r>
        <r>  0.0050  0.0218  0.0012  0.0046  0.0000  0.0000  0.0000  0.0000  0.0000 </r>
        <r>  0.0171  0.0750  0.0040  0.0013  0.0000  0.0000  0.0000  0.0000  0.0000 </r>
        <r>  0.0050  0.0218  0.0012  0.0046  0.0000  0.0000  0.0000  0.0000  0.0000 </r>
        <r>  0.0171  0.0750  0.0040  0.0013  0.0000  0.0000  0.0000  0.0000  0.0000 </r>
        <r>  0.0068  0.0000  0.0031  0.0004  0.0000  0.0000  0.0000  0.0000  0.0000 </r>
        <r>  0.0020  0.0000  0.0009  0.0014  0.0000  0.0000  0.0000  0.0000  0.0000 </r>
        <r>  0.0003  0.0109  0.0003  0.0000  0.0000  0.0000  0.0000  0.0000  0.0000 </r>
        <r>  0.0001  0.0032  0.0001  0.0002  0.0000  0.0000  0.0000  0.0000  0.0000 </r>
       </set>
       <set comment="band 35">
        <r>  0.0045  0.0194  0.0008  0.0017  0.0000  0.0000  0.0000  0.0000  0.0000 </r>
        <r>  0.0082  0.0353  0.0014  0.0009  0.0000  0.0000  0.0000  0.0000  0.0000 </r>
        <r>  0.0046  0.0191  0.0017  0.0026  0.0000  0.0000  0.0000  0.0000  0.0000 </r>
        <r>  0.0085  0.0348  0.0030  0.0014  0.0000  0.0000  0.0000  0.0000  0.0000 </r>
        <r>  0.0017  0.0047  0.0024  0.0005  0.0000  0.0000  0.0000  0.0000  0.0000 </r>
        <r>  0.0009  0.0026  0.0013  0.0010  0.0000  0.0000  0.0000  0.0000  0.0000 </r>
        <r>  0.0017  0.0047  0.0024  0.0005  0.0000  0.0000  0.0000  0.0000  0.0000 </r>
        <r>  0.0009  0.0026  0.0013  0.0010  0.0000  0.0000  0.0000  0.0000  0.0000 </r>
        <r>  0.0046  0.0191  0.0017  0.0026  0.0000  0.0000  0.0000  0.0000  0.0000 </r>
        <r>  0.0085  0.0348  0.0030  0.0014  0.0000  0.0000  0.0000  0.0000  0.0000 </r>
        <r>  0.0045  0.0194  0.0008  0.0017  0.0000  0.0000  0.0000  0.0000  0.0000 </r>
        <r>  0.0082  0.0353  0.0014  0.0009  0.0000  0.0000  0.0000  0.0000  0.0000 </r>
       </set>
       <set comment="band 36">
        <r>  0.0082  0.0353  0.0014  0.0009  0.0000  0.0000  0.0000  0.0000  0.0000 </r>
        <r>  0.0045  0.0194  0.0008  0.0017  0.0000  0.0000  0.0000  0.0000  0.0000 </r>
        <r>  0.0085  0.0348  0.0030  0.0014  0.0000  0.0000  0.0000  0.0000  0.0000 </r>
        <r>  0.0046  0.0191  0.0017  0.0026  0.0000  0.0000  0.0000  0.0000  0.0000 </r>
        <r>  0.0009  0.0026  0.0013  0.0010  0.0000  0.0000  0.0000  0.0000  0.0000 </r>
        <r>  0.0017  0.0047  0.0024  0.0005  0.0000  0.0000  0.0000  0.0000  0.0000 </r>
        <r>  0.0009  0.0026  0.0013  0.0010  0.0000  0.0000  0.0000  0.0000  0.0000 </r>
        <r>  0.0017  0.0047  0.0024  0.0005  0.0000  0.0000  0.0000  0.0000  0.0000 </r>
        <r>  0.0085  0.0348  0.0030  0.0014  0.0000  0.0000  0.0000  0.0000  0.0000 </r>
        <r>  0.0046  0.0191  0.0017  0.0026  0.0000  0.0000  0.0000  0.0000  0.0000 </r>
        <r>  0.0082  0.0353  0.0014  0.0009  0.0000  0.0000  0.0000  0.0000  0.0000 </r>
        <r>  0.0045  0.0194  0.0008  0.0017  0.0000  0.0000  0.0000  0.0000  0.0000 </r>
       </set>
       <set comment="band 37">
        <r>  0.0000  0.0001  0.0001  0.0016  0.0000  0.0000  0.0000  0.0000  0.0000 </r>
        <r>  0.0001  0.0000  0.0033  0.0001  0.0000  0.0000  0.0000  0.0000  0.0000 </r>
        <r>  0.0000  0.0002  0.0003  0.0016  0.0000  0.0000  0.0000  0.0000  0.0000 </r>
        <r>  0.0002  0.0000  0.0045  0.0001  0.0000  0.0000  0.0000  0.0000  0.0000 </r>
        <r>  0.0025  0.0015  0.0591  0.0385  0.0000  0.0000  0.0000  0.0000  0.0000 </r>
        <r>  0.0036  0.0019  0.0859  0.0269  0.0000  0.0000  0.0000  0.0000  0.0000 </r>
        <r>  0.0026  0.0014  0.0609  0.0385  0.0000  0.0000  0.0000  0.0000  0.0000 </r>
        <r>  0.0036  0.0019  0.0857  0.0269  0.0000  0.0000  0.0000  0.0000  0.0000 </r>
        <r>  0.0000  0.0002  0.0004  0.0003  0.0000  0.0000  0.0000  0.0000  0.0000 </r>
        <r>  0.0000  0.0003  0.0004  0.0001  0.0000  0.0000  0.0000  0.0000  0.0000 </r>
        <r>  0.0000  0.0000  0.0002  0.0003  0.0000  0.0000  0.0000  0.0000  0.0000 </r>
        <r>  0.0001  0.0001  0.0006  0.0001  0.0000  0.0000  0.0000  0.0000  0.0000 </r>
       </set>
       <set comment="band 38">
        <r>  0.0003  0.0001  0.0083  0.0041  0.0000  0.0000  0.0000  0.0000  0.0000 </r>
        <r>  0.0005  0.0004  0.0088  0.0039  0.0000  0.0000  0.0000  0.0000  0.0000 </r>
        <r>  0.0004  0.0001  0.0104  0.0043  0.0000  0.0000  0.0000  0.0000  0.0000 </r>
        <r>  0.0003  0.0005  0.0091  0.0041  0.0000  0.0000  0.0000  0.0000  0.0000 </r>
        <r>  0.0019  0.0006  0.0504  0.0147  0.0000  0.0000  0.0000  0.0000  0.0000 </r>
        <r>  0.0016  0.0012  0.0326  0.0227  0.0000  0.0000  0.0000  0.0000  0.0000 </r>
        <r>  0.0020  0.0005  0.0521  0.0147  0.0000  0.0000  0.0000  0.0000  0.0000 </r>
        <r>  0.0015  0.0013  0.0316  0.0226  0.0000  0.0000  0.0000  0.0000  0.0000 </r>
        <r>  0.0010  0.0002  0.0254  0.0123  0.0000  0.0000  0.0000  0.0000  0.0000 </r>
        <r>  0.0011  0.0013  0.0261  0.0105  0.0000  0.0000  0.0000  0.0000  0.0000 </r>
        <r>  0.0008  0.0004  0.0213  0.0117  0.0000  0.0000  0.0000  0.0000  0.0000 </r>
        <r>  0.0014  0.0010  0.0251  0.0100  0.0000  0.0000  0.0000  0.0000  0.0000 </r>
       </set>
       <set comment="band 39">
        <r>  0.0037  0.0026  0.0770  0.0005  0.0000  0.0000  0.0000  0.0000  0.0000 </r>
        <r>  0.0001  0.0001  0.0011  0.0352  0.0000  0.0000  0.0000  0.0000  0.0000 </r>
        <r>  0.0041  0.0022  0.0826  0.0005  0.0000  0.0000  0.0000  0.0000  0.0000 </r>
        <r>  0.0001  0.0000  0.0011  0.0375  0.0000  0.0000  0.0000  0.0000  0.0000 </r>
        <r>  0.0000  0.0000  0.0000  0.0000  0.0000  0.0000  0.0000  0.0000  0.0000 </r>
        <r>  0.0000  0.0001  0.0001  0.0000  0.0000  0.0000  0.0000  0.0000  0.0000 </r>
        <r>  0.0000  0.0000  0.0002  0.0000  0.0000  0.0000  0.0000  0.0000  0.0000 </r>
        <r>  0.0000  0.0000  0.0002  0.0000  0.0000  0.0000  0.0000  0.0000  0.0000 </r>
        <r>  0.0024  0.0013  0.0457  0.0103  0.0000  0.0000  0.0000  0.0000  0.0000 </r>
        <r>  0.0010  0.0006  0.0232  0.0212  0.0000  0.0000  0.0000  0.0000  0.0000 </r>
        <r>  0.0021  0.0017  0.0438  0.0098  0.0000  0.0000  0.0000  0.0000  0.0000 </r>
        <r>  0.0010  0.0006  0.0211  0.0198  0.0000  0.0000  0.0000  0.0000  0.0000 </r>
       </set>
       <set comment="band 40">
        <r>  0.0018  0.0010  0.0413  0.0062  0.0000  0.0000  0.0000  0.0000  0.0000 </r>
        <r>  0.0006  0.0003  0.0130  0.0196  0.0000  0.0000  0.0000  0.0000  0.0000 </r>
        <r>  0.0018  0.0010  0.0479  0.0065  0.0000  0.0000  0.0000  0.0000  0.0000 </r>
        <r>  0.0006  0.0003  0.0153  0.0205  0.0000  0.0000  0.0000  0.0000  0.0000 </r>
        <r>  0.0000  0.0001  0.0000  0.0000  0.0000  0.0000  0.0000  0.0000  0.0000 </r>
        <r>  0.0000  0.0003  0.0001  0.0000  0.0000  0.0000  0.0000  0.0000  0.0000 </r>
        <r>  0.0000  0.0002  0.0001  0.0000  0.0000  0.0000  0.0000  0.0000  0.0000 </r>
        <r>  0.0000  0.0003  0.0002  0.0000  0.0000  0.0000  0.0000  0.0000  0.0000 </r>
        <r>  0.0022  0.0012  0.0561  0.0182  0.0000  0.0000  0.0000  0.0000  0.0000 </r>
        <r>  0.0017  0.0009  0.0417  0.0241  0.0000  0.0000  0.0000  0.0000  0.0000 </r>
        <r>  0.0022  0.0012  0.0488  0.0173  0.0000  0.0000  0.0000  0.0000  0.0000 </r>
        <r>  0.0017  0.0010  0.0369  0.0231  0.0000  0.0000  0.0000  0.0000  0.0000 </r>
       </set>
      </set>
     </set>
    </set>
   </array>
  </projected>
 </calculation>
 <structure name="finalpos" >
  <crystal>
   <varray name="basis" >
    <v>       3.34288600       0.00000000       0.00000000 </v>
    <v>       0.00000000      32.60240900       0.00000000 </v>
    <v>       0.00000000       0.00000000       4.37483100 </v>
   </varray>
   <i name="volume">    476.79592902 </i>
   <varray name="rec_basis" >
    <v>       0.29914272       0.00000000       0.00000000 </v>
    <v>       0.00000000       0.03067258       0.00000000 </v>
    <v>       0.00000000       0.00000000       0.22858026 </v>
   </varray>
  </crystal>
  <varray name="positions" >
   <v>       0.00000000       0.30672600       0.91892400 </v>
   <v>       0.50000000       0.30672600       0.58107600 </v>
   <v>       0.00000000       0.37246700       0.08107600 </v>
   <v>       0.50000000       0.37246700       0.41892400 </v>
   <v>       0.50000000       0.46712900       0.91892400 </v>
   <v>       0.00000000       0.46712900       0.58107600 </v>
   <v>       0.50000000       0.53287100       0.08107600 </v>
   <v>       0.00000000       0.53287100       0.41892400 </v>
   <v>       0.00000000       0.62753300       0.91892400 </v>
   <v>       0.50000000       0.62753300       0.58107600 </v>
   <v>       0.00000000       0.69327400       0.08107600 </v>
   <v>       0.50000000       0.69327400       0.41892400 </v>
  </varray>
 </structure>
</modeling>
