  12  12   1   0
  0.3973299E+02  0.3342886E-09  0.3260241E-08  0.4374831E-09  0.5000000E-15
  1.000000000000000E-004
  CAR 
 Generic Input                           
      5.85548436    -15.83991535 2000      0.94023635      1.00000000
    -15.840  0.0000E+00  0.0000E+00
    -15.829  0.0000E+00  0.0000E+00
    -15.818  0.0000E+00  0.0000E+00
    -15.807  0.0000E+00  0.0000E+00
    -15.797  0.0000E+00  0.0000E+00
    -15.786  0.0000E+00  0.0000E+00
    -15.775  0.0000E+00  0.0000E+00
    -15.764  0.0000E+00  0.0000E+00
    -15.753  0.0000E+00  0.0000E+00
    -15.742  0.0000E+00  0.0000E+00
    -15.731  0.0000E+00  0.0000E+00
    -15.721  0.0000E+00  0.0000E+00
    -15.710  0.0000E+00  0.0000E+00
    -15.699  0.0000E+00  0.0000E+00
    -15.688  0.0000E+00  0.0000E+00
    -15.677  0.0000E+00  0.0000E+00
    -15.666  0.0000E+00  0.0000E+00
    -15.655  0.0000E+00  0.0000E+00
    -15.645  0.0000E+00  0.0000E+00
    -15.634  0.0000E+00  0.0000E+00
    -15.623  0.0000E+00  0.0000E+00
    -15.612  0.0000E+00  0.0000E+00
    -15.601  0.0000E+00  0.0000E+00
    -15.590  0.0000E+00  0.0000E+00
    -15.579  0.0000E+00  0.0000E+00
    -15.569  0.0000E+00  0.0000E+00
    -15.558  0.0000E+00  0.0000E+00
    -15.547  0.0000E+00  0.0000E+00
    -15.536  0.0000E+00  0.0000E+00
    -15.525  0.0000E+00  0.0000E+00
    -15.514  0.0000E+00  0.0000E+00
    -15.503  0.0000E+00  0.0000E+00
    -15.493  0.0000E+00  0.0000E+00
    -15.482  0.0000E+00  0.0000E+00
    -15.471  0.0000E+00  0.0000E+00
    -15.460  0.0000E+00  0.0000E+00
    -15.449  0.0000E+00  0.0000E+00
    -15.438  0.0000E+00  0.0000E+00
    -15.427  0.0000E+00  0.0000E+00
    -15.417  0.0000E+00  0.0000E+00
    -15.406  0.0000E+00  0.0000E+00
    -15.395  0.0000E+00  0.0000E+00
    -15.384  0.0000E+00  0.0000E+00
    -15.373  0.0000E+00  0.0000E+00
    -15.362  0.0000E+00  0.0000E+00
    -15.352  0.0000E+00  0.0000E+00
    -15.341  0.0000E+00  0.0000E+00
    -15.330  0.0000E+00  0.0000E+00
    -15.319  0.0000E+00  0.0000E+00
    -15.308  0.0000E+00  0.0000E+00
    -15.297  0.0000E+00  0.0000E+00
    -15.286  0.0000E+00  0.0000E+00
    -15.276  0.0000E+00  0.0000E+00
    -15.265  0.0000E+00  0.0000E+00
    -15.254  0.0000E+00  0.0000E+00
    -15.243  0.0000E+00  0.0000E+00
    -15.232  0.0000E+00  0.0000E+00
    -15.221  0.0000E+00  0.0000E+00
    -15.210  0.0000E+00  0.0000E+00
    -15.200  0.0000E+00  0.0000E+00
    -15.189  0.0000E+00  0.0000E+00
    -15.178  0.0000E+00  0.0000E+00
    -15.167  0.0000E+00  0.0000E+00
    -15.156  0.0000E+00  0.0000E+00
    -15.145  0.0000E+00  0.0000E+00
    -15.134  0.0000E+00  0.0000E+00
    -15.124  0.0000E+00  0.0000E+00
    -15.113  0.0000E+00  0.0000E+00
    -15.102  0.0000E+00  0.0000E+00
    -15.091  0.0000E+00  0.0000E+00
    -15.080  0.0000E+00  0.0000E+00
    -15.069  0.0000E+00  0.0000E+00
    -15.058  0.0000E+00  0.0000E+00
    -15.048  0.0000E+00  0.0000E+00
    -15.037  0.0000E+00  0.0000E+00
    -15.026  0.0000E+00  0.0000E+00
    -15.015  0.0000E+00  0.0000E+00
    -15.004  0.0000E+00  0.0000E+00
    -14.993  0.0000E+00  0.0000E+00
    -14.983  0.0000E+00  0.0000E+00
    -14.972  0.0000E+00  0.0000E+00
    -14.961  0.0000E+00  0.0000E+00
    -14.950  0.0000E+00  0.0000E+00
    -14.939  0.0000E+00  0.0000E+00
    -14.928  0.0000E+00  0.0000E+00
    -14.917  0.0000E+00  0.0000E+00
    -14.907  0.3197E-12  0.3469E-14
    -14.896  0.1162E-07  0.1261E-09
    -14.885  0.4246E-04  0.4609E-06
    -14.874  0.1620E-01  0.1763E-03
    -14.863  0.6939E+00  0.7708E-02
    -14.852  0.3765E+01  0.4857E-01
    -14.841  0.2891E+01  0.7995E-01
    -14.831  0.3075E+00  0.8329E-01
    -14.820  0.3993E-02  0.8333E-01
    -14.809  0.5682E-05  0.8333E-01
    -14.798  0.8333E-09  0.8333E-01
    -14.787  0.9462E-13  0.8333E-01
    -14.776  0.3914E-08  0.8333E-01
    -14.765  0.1859E-04  0.8333E-01
    -14.755  0.9167E-02  0.8343E-01
    -14.744  0.5021E+00  0.8888E-01
    -14.733  0.3429E+01  0.1261E+00
    -14.722  0.3289E+01  0.1618E+00
    -14.711  0.4414E+00  0.1666E+00
    -14.700  0.7346E-02  0.1667E+00
    -14.689  0.1707E-02  0.1667E+00
    -14.679  0.1818E+00  0.1687E+00
    -14.668  0.2338E+01  0.1940E+00
    -14.657  0.4099E+01  0.2385E+00
    -14.646  0.1024E+01  0.2496E+00
    -14.635  0.3309E-01  0.2500E+00
    -14.624  0.1219E-03  0.2500E+00
    -14.614  0.4730E-07  0.2500E+00
    -14.603  0.1853E-11  0.2500E+00
    -14.592  0.0000E+00  0.2500E+00
    -14.581  0.5876E-11  0.2500E+00
    -14.570  0.1365E-06  0.2500E+00
    -14.559  0.3205E-03  0.2500E+00
    -14.548  0.7944E-01  0.2509E+00
    -14.538  0.2255E+01  0.2753E+00
    -14.527  0.8326E+01  0.3657E+00
    -14.516  0.4808E+01  0.4179E+00
    -14.505  0.5305E+01  0.4755E+00
    -14.494  0.8042E+01  0.5627E+00
    -14.483  0.1843E+01  0.5827E+00
    -14.472  0.5429E-01  0.5833E+00
    -14.462  0.1816E-03  0.5833E+00
    -14.451  0.1909E-06  0.5833E+00
    -14.440  0.3041E-03  0.5833E+00
    -14.429  0.7670E-01  0.5842E+00
    -14.418  0.2214E+01  0.6082E+00
    -14.407  0.8371E+01  0.6990E+00
    -14.396  0.6565E+01  0.7703E+00
    -14.386  0.8570E+01  0.8633E+00
    -14.375  0.4568E+01  0.9129E+00
    -14.364  0.3748E+00  0.9170E+00
    -14.353  0.1358E+01  0.9317E+00
    -14.342  0.7838E+01  0.1017E+01
    -14.331  0.1050E+02  0.1131E+01
    -14.320  0.8845E+01  0.1227E+01
    -14.310  0.2075E+01  0.1249E+01
    -14.299  0.6732E-01  0.1250E+01
    -14.288  0.2501E-03  0.1250E+01
    -14.277  0.9783E-07  0.1250E+01
    -14.266  0.3867E-11  0.1250E+01
    -14.255  0.0000E+00  0.1250E+01
    -14.245  0.0000E+00  0.1250E+01
    -14.234  0.2089E-10  0.1250E+01
    -14.223  0.4307E-06  0.1250E+01
    -14.212  0.8996E-03  0.1250E+01
    -14.201  0.1989E+00  0.1252E+01
    -14.190  0.5065E+01  0.1307E+01
    -14.179  0.1688E+02  0.1490E+01
    -14.169  0.8044E+01  0.1578E+01
    -14.158  0.5168E+00  0.1583E+01
    -14.147  0.3931E-02  0.1583E+01
    -14.136  0.3215E-05  0.1583E+01
    -14.125  0.2688E-09  0.1583E+01
    -14.114  0.1919E-07  0.1583E+01
    -14.103  0.8682E-04  0.1583E+01
    -14.093  0.4083E-01  0.1584E+01
    -14.082  0.2136E+01  0.1607E+01
    -14.071  0.1398E+02  0.1759E+01
    -14.060  0.1287E+02  0.1898E+01
    -14.049  0.1655E+01  0.1916E+01
    -14.038  0.2909E-01  0.1917E+01
    -14.027  0.4149E+00  0.1921E+01
    -14.017  0.7267E+01  0.2000E+01
    -14.006  0.1705E+02  0.2185E+01
    -13.995  0.5722E+01  0.2247E+01
    -13.984  0.2533E+00  0.2250E+01
    -13.973  0.1300E-02  0.2250E+01
    -13.962  0.7083E-06  0.2250E+01
    -13.951  0.3917E-10  0.2250E+01
    -13.941  0.0000E+00  0.2250E+01
    -13.930  0.0000E+00  0.2250E+01
    -13.919  0.0000E+00  0.2250E+01
    -13.908  0.0000E+00  0.2250E+01
    -13.897  0.0000E+00  0.2250E+01
    -13.886  0.0000E+00  0.2250E+01
    -13.875  0.0000E+00  0.2250E+01
    -13.865  0.0000E+00  0.2250E+01
    -13.854  0.0000E+00  0.2250E+01
    -13.843  0.0000E+00  0.2250E+01
    -13.832  0.0000E+00  0.2250E+01
    -13.821  0.0000E+00  0.2250E+01
    -13.810  0.0000E+00  0.2250E+01
    -13.800  0.0000E+00  0.2250E+01
    -13.789  0.0000E+00  0.2250E+01
    -13.778  0.0000E+00  0.2250E+01
    -13.767  0.0000E+00  0.2250E+01
    -13.756  0.0000E+00  0.2250E+01
    -13.745  0.0000E+00  0.2250E+01
    -13.734  0.0000E+00  0.2250E+01
    -13.724  0.0000E+00  0.2250E+01
    -13.713  0.0000E+00  0.2250E+01
    -13.702  0.0000E+00  0.2250E+01
    -13.691  0.0000E+00  0.2250E+01
    -13.680  0.0000E+00  0.2250E+01
    -13.669  0.0000E+00  0.2250E+01
    -13.658  0.0000E+00  0.2250E+01
    -13.648  0.0000E+00  0.2250E+01
    -13.637  0.0000E+00  0.2250E+01
    -13.626  0.4248E-10  0.2250E+01
    -13.615  0.6521E-06  0.2250E+01
    -13.604  0.1018E-02  0.2250E+01
    -13.593  0.1696E+00  0.2252E+01
    -13.582  0.3302E+01  0.2288E+01
    -13.572  0.8558E+01  0.2381E+01
    -13.561  0.3454E+01  0.2418E+01
    -13.550  0.4343E+01  0.2465E+01
    -13.539  0.8393E+01  0.2556E+01
    -13.528  0.2403E+01  0.2582E+01
    -13.517  0.8979E-01  0.2583E+01
    -13.506  0.4973E-03  0.2583E+01
    -13.496  0.3912E-01  0.2584E+01
    -13.485  0.1549E+01  0.2601E+01
    -13.474  0.8386E+01  0.2692E+01
    -13.463  0.1142E+02  0.2816E+01
    -13.452  0.7975E+01  0.2902E+01
    -13.441  0.2062E+01  0.2925E+01
    -13.431  0.6220E+01  0.2992E+01
    -13.420  0.7234E+01  0.3071E+01
    -13.409  0.2417E+01  0.3097E+01
    -13.398  0.7319E+01  0.3176E+01
    -13.387  0.6086E+01  0.3242E+01
    -13.376  0.7061E+00  0.3250E+01
    -13.365  0.1006E-01  0.3250E+01
    -13.355  0.1576E-04  0.3250E+01
    -13.344  0.2550E-08  0.3250E+01
    -13.333  0.4092E-13  0.3250E+01
    -13.322  0.0000E+00  0.3250E+01
    -13.311  0.1705E-14  0.3250E+01
    -13.300  0.2093E-09  0.3250E+01
    -13.289  0.2647E-05  0.3250E+01
    -13.279  0.3414E-02  0.3250E+01
    -13.268  0.4738E+00  0.3255E+01
    -13.257  0.7976E+01  0.3342E+01
    -13.246  0.2272E+02  0.3588E+01
    -13.235  0.2239E+02  0.3831E+01
    -13.224  0.7455E+01  0.3912E+01
    -13.213  0.4120E+00  0.3917E+01
    -13.203  0.2805E-02  0.3917E+01
    -13.192  0.3197E-01  0.3917E+01
    -13.181  0.1855E+01  0.3937E+01
    -13.170  0.1338E+02  0.4082E+01
    -13.159  0.1416E+02  0.4236E+01
    -13.148  0.1086E+02  0.4354E+01
    -13.137  0.1771E+02  0.4546E+01
    -13.127  0.1544E+02  0.4714E+01
    -13.116  0.1558E+02  0.4883E+01
    -13.105  0.3635E+01  0.4922E+01
    -13.094  0.8561E+01  0.5015E+01
    -13.083  0.1675E+02  0.5197E+01
    -13.072  0.4721E+01  0.5248E+01
    -13.062  0.1735E+00  0.5250E+01
    -13.051  0.7317E-03  0.5250E+01
    -13.040  0.3261E-06  0.5250E+01
    -13.029  0.1470E-10  0.5250E+01
    -13.018  0.0000E+00  0.5250E+01
    -13.007  0.0000E+00  0.5250E+01
    -12.996  0.0000E+00  0.5250E+01
    -12.986  0.0000E+00  0.5250E+01
    -12.975  0.0000E+00  0.5250E+01
    -12.964  0.0000E+00  0.5250E+01
    -12.953  0.0000E+00  0.5250E+01
    -12.942  0.0000E+00  0.5250E+01
    -12.931  0.0000E+00  0.5250E+01
    -12.920  0.0000E+00  0.5250E+01
    -12.910  0.0000E+00  0.5250E+01
    -12.899  0.0000E+00  0.5250E+01
    -12.888  0.0000E+00  0.5250E+01
    -12.877  0.0000E+00  0.5250E+01
    -12.866  0.0000E+00  0.5250E+01
    -12.855  0.0000E+00  0.5250E+01
    -12.844  0.0000E+00  0.5250E+01
    -12.834  0.0000E+00  0.5250E+01
    -12.823  0.0000E+00  0.5250E+01
    -12.812  0.0000E+00  0.5250E+01
    -12.801  0.0000E+00  0.5250E+01
    -12.790  0.0000E+00  0.5250E+01
    -12.779  0.0000E+00  0.5250E+01
    -12.768  0.0000E+00  0.5250E+01
    -12.758  0.0000E+00  0.5250E+01
    -12.747  0.0000E+00  0.5250E+01
    -12.736  0.0000E+00  0.5250E+01
    -12.725  0.0000E+00  0.5250E+01
    -12.714  0.0000E+00  0.5250E+01
    -12.703  0.0000E+00  0.5250E+01
    -12.693  0.0000E+00  0.5250E+01
    -12.682  0.0000E+00  0.5250E+01
    -12.671  0.0000E+00  0.5250E+01
    -12.660  0.0000E+00  0.5250E+01
    -12.649  0.1841E-12  0.5250E+01
    -12.638  0.8545E-08  0.5250E+01
    -12.627  0.3975E-04  0.5250E+01
    -12.617  0.1920E-01  0.5250E+01
    -12.606  0.1031E+01  0.5261E+01
    -12.595  0.6916E+01  0.5336E+01
    -12.584  0.6517E+01  0.5407E+01
    -12.573  0.8586E+00  0.5417E+01
    -12.562  0.1401E-01  0.5417E+01
    -12.551  0.2527E-04  0.5417E+01
    -12.541  0.4720E-08  0.5417E+01
    -12.530  0.8866E-13  0.5417E+01
    -12.519  0.1705E-14  0.5417E+01
    -12.508  0.2131E-09  0.5417E+01
    -12.497  0.2307E-05  0.5417E+01
    -12.486  0.2554E-02  0.5417E+01
    -12.475  0.3048E+00  0.5420E+01
    -12.465  0.4331E+01  0.5467E+01
    -12.454  0.8342E+01  0.5558E+01
    -12.443  0.2294E+01  0.5582E+01
    -12.432  0.8216E-01  0.5583E+01
    -12.421  0.2701E-01  0.5584E+01
    -12.410  0.1245E+01  0.5597E+01
    -12.399  0.7524E+01  0.5679E+01
    -12.389  0.1139E+02  0.5802E+01
    -12.378  0.1935E+02  0.6012E+01
    -12.367  0.1212E+02  0.6144E+01
    -12.356  0.2015E+01  0.6166E+01
    -12.345  0.7601E-01  0.6167E+01
    -12.334  0.6578E-01  0.6167E+01
    -12.324  0.2790E+01  0.6198E+01
    -12.313  0.1508E+02  0.6361E+01
    -12.302  0.1156E+02  0.6487E+01
    -12.291  0.2983E+01  0.6519E+01
    -12.280  0.1838E+02  0.6719E+01
    -12.269  0.3149E+02  0.7060E+01
    -12.258  0.9350E+01  0.7162E+01
    -12.248  0.4306E+00  0.7167E+01
    -12.237  0.2560E-02  0.7167E+01
    -12.226  0.1704E-05  0.7167E+01
    -12.215  0.1177E-09  0.7167E+01
    -12.204  0.1569E-12  0.7167E+01
    -12.193  0.8565E-08  0.7167E+01
    -12.182  0.4691E-04  0.7167E+01
    -12.172  0.2660E-01  0.7167E+01
    -12.161  0.1666E+01  0.7185E+01
    -12.150  0.1290E+02  0.7325E+01
    -12.139  0.1425E+02  0.7480E+01
    -12.128  0.4975E+01  0.7534E+01
    -12.117  0.3844E+01  0.7575E+01
    -12.106  0.1610E+01  0.7593E+01
    -12.096  0.1022E+02  0.7704E+01
    -12.085  0.1604E+02  0.7878E+01
    -12.074  0.5813E+01  0.7941E+01
    -12.063  0.8429E+01  0.8032E+01
    -12.052  0.4540E+01  0.8082E+01
    -12.041  0.3598E+01  0.8121E+01
    -12.030  0.8558E+01  0.8214E+01
    -12.020  0.3186E+01  0.8248E+01
    -12.009  0.1576E+00  0.8250E+01
    -11.998  0.9105E-03  0.8250E+01
    -11.987  0.2021E-02  0.8250E+01
    -11.976  0.2631E+00  0.8253E+01
    -11.965  0.4090E+01  0.8297E+01
    -11.954  0.9504E+01  0.8400E+01
    -11.944  0.6636E+01  0.8472E+01
    -11.933  0.2375E+01  0.8498E+01
    -11.922  0.6905E+00  0.8506E+01
    -11.911  0.5421E+01  0.8565E+01
    -11.900  0.7783E+01  0.8649E+01
    -11.889  0.1586E+01  0.8666E+01
    -11.879  0.4762E-01  0.8667E+01
    -11.868  0.7023E+00  0.8674E+01
    -11.857  0.9213E+01  0.8774E+01
    -11.846  0.1646E+02  0.8953E+01
    -11.835  0.4193E+01  0.8998E+01
    -11.824  0.1383E+00  0.9000E+01
    -11.813  0.1372E-01  0.9000E+01
    -11.803  0.8291E+00  0.9009E+01
    -11.792  0.6440E+01  0.9079E+01
    -11.781  0.7074E+01  0.9156E+01
    -11.770  0.4309E+01  0.9203E+01
    -11.759  0.1567E+02  0.9373E+01
    -11.748  0.1072E+02  0.9489E+01
    -11.737  0.1681E+01  0.9507E+01
    -11.727  0.9040E+01  0.9605E+01
    -11.716  0.1654E+02  0.9785E+01
    -11.705  0.4322E+01  0.9832E+01
    -11.694  0.1465E+00  0.9833E+01
    -11.683  0.5675E-03  0.9833E+01
    -11.672  0.2318E-06  0.9833E+01
    -11.661  0.5311E-10  0.9833E+01
    -11.651  0.6649E-06  0.9833E+01
    -11.640  0.1033E-02  0.9833E+01
    -11.629  0.1712E+00  0.9835E+01
    -11.618  0.3316E+01  0.9871E+01
    -11.607  0.8555E+01  0.9964E+01
    -11.596  0.3158E+01  0.9998E+01
    -11.585  0.1934E+00  0.1000E+02
    -11.575  0.1533E+01  0.1002E+02
    -11.564  0.7720E+01  0.1010E+02
    -11.553  0.5515E+01  0.1016E+02
    -11.542  0.5438E+00  0.1017E+02
    -11.531  0.3418E-01  0.1017E+02
    -11.520  0.1704E+01  0.1019E+02
    -11.510  0.1300E+02  0.1033E+02
    -11.499  0.1386E+02  0.1048E+02
    -11.488  0.2079E+01  0.1050E+02
    -11.477  0.3895E-01  0.1050E+02
    -11.466  0.3798E-03  0.1050E+02
    -11.455  0.9513E-01  0.1050E+02
    -11.444  0.3430E+01  0.1054E+02
    -11.434  0.1584E+02  0.1071E+02
    -11.423  0.1040E+02  0.1082E+02
    -11.412  0.9375E+00  0.1083E+02
    -11.401  0.1022E-01  0.1083E+02
    -11.390  0.1211E-04  0.1083E+02
    -11.379  0.2461E-08  0.1083E+02
    -11.368  0.8853E-05  0.1083E+02
    -11.358  0.8162E-02  0.1083E+02
    -11.347  0.8166E+00  0.1084E+02
    -11.336  0.9823E+01  0.1095E+02
    -11.325  0.1617E+02  0.1112E+02
    -11.314  0.4548E+01  0.1117E+02
    -11.303  0.9651E+01  0.1128E+02
    -11.292  0.1631E+02  0.1146E+02
    -11.282  0.3974E+01  0.1150E+02
    -11.271  0.1250E+00  0.1150E+02
    -11.260  0.4477E-03  0.1150E+02
    -11.249  0.1687E-06  0.1150E+02
    -11.238  0.6417E-11  0.1150E+02
    -11.227  0.0000E+00  0.1150E+02
    -11.216  0.0000E+00  0.1150E+02
    -11.206  0.0000E+00  0.1150E+02
    -11.195  0.0000E+00  0.1150E+02
    -11.184  0.0000E+00  0.1150E+02
    -11.173  0.0000E+00  0.1150E+02
    -11.162  0.0000E+00  0.1150E+02
    -11.151  0.0000E+00  0.1150E+02
    -11.141  0.0000E+00  0.1150E+02
    -11.130  0.0000E+00  0.1150E+02
    -11.119  0.0000E+00  0.1150E+02
    -11.108  0.0000E+00  0.1150E+02
    -11.097  0.0000E+00  0.1150E+02
    -11.086  0.1672E-11  0.1150E+02
    -11.075  0.5013E-07  0.1150E+02
    -11.065  0.1516E-03  0.1150E+02
    -11.054  0.4806E-01  0.1150E+02
    -11.043  0.1725E+01  0.1152E+02
    -11.032  0.7931E+01  0.1161E+02
    -11.021  0.5183E+01  0.1166E+02
    -11.010  0.4652E+00  0.1167E+02
    -10.999  0.5045E-02  0.1167E+02
    -10.989  0.5953E-05  0.1167E+02
    -10.978  0.7217E-09  0.1167E+02
    -10.967  0.8525E-14  0.1167E+02
    -10.956  0.0000E+00  0.1167E+02
    -10.945  0.0000E+00  0.1167E+02
    -10.934  0.0000E+00  0.1167E+02
    -10.923  0.0000E+00  0.1167E+02
    -10.913  0.0000E+00  0.1167E+02
    -10.902  0.0000E+00  0.1167E+02
    -10.891  0.0000E+00  0.1167E+02
    -10.880  0.0000E+00  0.1167E+02
    -10.869  0.0000E+00  0.1167E+02
    -10.858  0.0000E+00  0.1167E+02
    -10.847  0.4450E-12  0.1167E+02
    -10.837  0.1738E-07  0.1167E+02
    -10.826  0.6815E-04  0.1167E+02
    -10.815  0.2786E-01  0.1167E+02
    -10.804  0.1275E+01  0.1168E+02
    -10.793  0.7362E+01  0.1176E+02
    -10.782  0.6002E+01  0.1183E+02
    -10.772  0.6798E+00  0.1183E+02
    -10.761  0.9441E-02  0.1183E+02
    -10.750  0.1440E-04  0.1183E+02
    -10.739  0.2268E-08  0.1183E+02
    -10.728  0.3580E-13  0.1183E+02
    -10.717  0.0000E+00  0.1183E+02
    -10.706  0.0000E+00  0.1183E+02
    -10.696  0.0000E+00  0.1183E+02
    -10.685  0.0000E+00  0.1183E+02
    -10.674  0.1347E-12  0.1183E+02
    -10.663  0.6621E-08  0.1183E+02
    -10.652  0.3272E-04  0.1183E+02
    -10.641  0.1678E-01  0.1183E+02
    -10.630  0.9538E+00  0.1184E+02
    -10.620  0.6747E+01  0.1192E+02
    -10.609  0.6692E+01  0.1199E+02
    -10.598  0.9302E+00  0.1200E+02
    -10.587  0.1607E-01  0.1200E+02
    -10.576  0.3076E-04  0.1200E+02
    -10.565  0.6105E-08  0.1200E+02
    -10.554  0.1210E-12  0.1200E+02
    -10.544  0.0000E+00  0.1200E+02
    -10.533  0.0000E+00  0.1200E+02
    -10.522  0.0000E+00  0.1200E+02
    -10.511  0.0000E+00  0.1200E+02
    -10.500  0.0000E+00  0.1200E+02
    -10.489  0.0000E+00  0.1200E+02
    -10.478  0.0000E+00  0.1200E+02
    -10.468  0.0000E+00  0.1200E+02
    -10.457  0.0000E+00  0.1200E+02
    -10.446  0.0000E+00  0.1200E+02
    -10.435  0.0000E+00  0.1200E+02
    -10.424  0.0000E+00  0.1200E+02
    -10.413  0.0000E+00  0.1200E+02
    -10.402  0.0000E+00  0.1200E+02
    -10.392  0.0000E+00  0.1200E+02
    -10.381  0.0000E+00  0.1200E+02
    -10.370  0.0000E+00  0.1200E+02
    -10.359  0.0000E+00  0.1200E+02
    -10.348  0.0000E+00  0.1200E+02
    -10.337  0.0000E+00  0.1200E+02
    -10.327  0.0000E+00  0.1200E+02
    -10.316  0.0000E+00  0.1200E+02
    -10.305  0.0000E+00  0.1200E+02
    -10.294  0.4714E-12  0.1200E+02
    -10.283  0.1819E-07  0.1200E+02
    -10.272  0.7055E-04  0.1200E+02
    -10.261  0.2853E-01  0.1200E+02
    -10.251  0.1292E+01  0.1201E+02
    -10.240  0.7389E+01  0.1209E+02
    -10.229  0.5968E+01  0.1216E+02
    -10.218  0.6693E+00  0.1217E+02
    -10.207  0.9199E-02  0.1217E+02
    -10.196  0.1921E-04  0.1217E+02
    -10.185  0.4659E-02  0.1217E+02
    -10.175  0.4430E+00  0.1217E+02
    -10.164  0.5081E+01  0.1223E+02
    -10.153  0.8138E+01  0.1231E+02
    -10.142  0.4875E+01  0.1237E+02
    -10.131  0.8603E+01  0.1246E+02
    -10.120  0.3388E+01  0.1250E+02
    -10.109  0.1790E+00  0.1250E+02
    -10.099  0.1106E-02  0.1250E+02
    -10.088  0.7306E-06  0.1250E+02
    -10.077  0.4909E-10  0.1250E+02
    -10.066  0.0000E+00  0.1250E+02
    -10.055  0.0000E+00  0.1250E+02
    -10.044  0.0000E+00  0.1250E+02
    -10.033  0.0000E+00  0.1250E+02
    -10.023  0.0000E+00  0.1250E+02
    -10.012  0.0000E+00  0.1250E+02
    -10.001  0.0000E+00  0.1250E+02
     -9.990  0.0000E+00  0.1250E+02
     -9.979  0.0000E+00  0.1250E+02
     -9.968  0.0000E+00  0.1250E+02
     -9.958  0.0000E+00  0.1250E+02
     -9.947  0.0000E+00  0.1250E+02
     -9.936  0.0000E+00  0.1250E+02
     -9.925  0.0000E+00  0.1250E+02
     -9.914  0.0000E+00  0.1250E+02
     -9.903  0.0000E+00  0.1250E+02
     -9.892  0.0000E+00  0.1250E+02
     -9.882  0.0000E+00  0.1250E+02
     -9.871  0.0000E+00  0.1250E+02
     -9.860  0.0000E+00  0.1250E+02
     -9.849  0.0000E+00  0.1250E+02
     -9.838  0.0000E+00  0.1250E+02
     -9.827  0.0000E+00  0.1250E+02
     -9.816  0.0000E+00  0.1250E+02
     -9.806  0.2216E-13  0.1250E+02
     -9.795  0.1787E-08  0.1250E+02
     -9.784  0.1405E-04  0.1250E+02
     -9.773  0.1135E-01  0.1250E+02
     -9.762  0.9999E+00  0.1251E+02
     -9.751  0.1067E+02  0.1263E+02
     -9.740  0.1567E+02  0.1280E+02
     -9.730  0.3269E+01  0.1283E+02
     -9.719  0.8710E-01  0.1283E+02
     -9.708  0.2622E-03  0.1283E+02
     -9.697  0.8265E-07  0.1283E+02
     -9.686  0.2626E-11  0.1283E+02
     -9.675  0.0000E+00  0.1283E+02
     -9.664  0.0000E+00  0.1283E+02
     -9.654  0.0000E+00  0.1283E+02
     -9.643  0.3086E-12  0.1283E+02
     -9.632  0.1484E-07  0.1283E+02
     -9.621  0.7140E-04  0.1283E+02
     -9.610  0.3565E-01  0.1283E+02
     -9.599  0.1976E+01  0.1286E+02
     -9.589  0.1365E+02  0.1300E+02
     -9.578  0.1323E+02  0.1315E+02
     -9.567  0.1795E+01  0.1317E+02
     -9.556  0.3125E-01  0.1317E+02
     -9.545  0.1690E+00  0.1317E+02
     -9.534  0.3295E+01  0.1320E+02
     -9.523  0.8556E+01  0.1330E+02
     -9.513  0.3178E+01  0.1333E+02
     -9.502  0.1811E+00  0.1333E+02
     -9.491  0.1585E+01  0.1335E+02
     -9.480  0.1310E+02  0.1349E+02
     -9.469  0.2146E+02  0.1373E+02
     -9.458  0.1922E+02  0.1393E+02
     -9.447  0.5980E+01  0.1400E+02
     -9.437  0.5388E+01  0.1406E+02
     -9.426  0.1691E+02  0.1424E+02
     -9.415  0.8154E+01  0.1433E+02
     -9.404  0.3990E+01  0.1437E+02
     -9.393  0.8548E+01  0.1447E+02
     -9.382  0.2998E+01  0.1450E+02
     -9.371  0.1391E+00  0.1450E+02
     -9.361  0.7502E-03  0.1450E+02
     -9.350  0.4304E-06  0.1450E+02
     -9.339  0.2507E-10  0.1450E+02
     -9.328  0.2728E-13  0.1450E+02
     -9.317  0.2050E-08  0.1450E+02
     -9.306  0.1562E-04  0.1450E+02
     -9.295  0.1224E-01  0.1450E+02
     -9.285  0.1047E+01  0.1451E+02
     -9.274  0.1087E+02  0.1463E+02
     -9.263  0.1555E+02  0.1480E+02
     -9.252  0.3156E+01  0.1483E+02
     -9.241  0.8170E-01  0.1483E+02
     -9.230  0.2386E-03  0.1483E+02
     -9.220  0.6981E-06  0.1483E+02
     -9.209  0.1186E-02  0.1483E+02
     -9.198  0.2391E+00  0.1484E+02
     -9.187  0.5678E+01  0.1490E+02
     -9.176  0.1987E+02  0.1511E+02
     -9.165  0.1598E+02  0.1529E+02
     -9.154  0.4080E+01  0.1533E+02
     -9.144  0.2113E+00  0.1533E+02
     -9.133  0.1404E-02  0.1533E+02
     -9.122  0.1010E-05  0.1533E+02
     -9.111  0.7409E-10  0.1533E+02
     -9.100  0.0000E+00  0.1533E+02
     -9.089  0.1220E-10  0.1533E+02
     -9.078  0.2812E-06  0.1533E+02
     -9.068  0.6553E-03  0.1533E+02
     -9.057  0.1612E+00  0.1534E+02
     -9.046  0.4544E+01  0.1538E+02
     -9.035  0.1666E+02  0.1557E+02
     -9.024  0.8804E+01  0.1566E+02
     -9.013  0.3804E+01  0.1570E+02
     -9.002  0.1556E+02  0.1587E+02
     -8.992  0.1083E+02  0.1599E+02
     -8.981  0.1044E+01  0.1600E+02
     -8.970  0.1228E-01  0.1600E+02
     -8.959  0.1585E-04  0.1600E+02
     -8.948  0.2134E-08  0.1600E+02
     -8.937  0.3162E-06  0.1600E+02
     -8.926  0.5978E-03  0.1600E+02
     -8.916  0.1203E+00  0.1600E+02
     -8.905  0.2902E+01  0.1603E+02
     -8.894  0.1237E+02  0.1617E+02
     -8.883  0.1994E+02  0.1638E+02
     -8.872  0.9935E+01  0.1649E+02
     -8.861  0.1211E+01  0.1650E+02
     -8.851  0.5374E+01  0.1656E+02
     -8.840  0.1454E+02  0.1672E+02
     -8.829  0.1776E+02  0.1691E+02
     -8.818  0.7399E+01  0.1699E+02
     -8.807  0.5807E+00  0.1700E+02
     -8.796  0.2159E-01  0.1700E+02
     -8.785  0.1198E+01  0.1701E+02
     -8.775  0.1145E+02  0.1714E+02
     -8.764  0.1515E+02  0.1730E+02
     -8.753  0.2837E+01  0.1733E+02
     -8.742  0.2151E+00  0.1733E+02
     -8.731  0.3088E+01  0.1737E+02
     -8.720  0.8552E+01  0.1746E+02
     -8.709  0.3389E+01  0.1750E+02
     -8.699  0.1791E+00  0.1750E+02
     -8.688  0.6938E-02  0.1750E+02
     -8.677  0.6625E+00  0.1751E+02
     -8.666  0.8983E+01  0.1760E+02
     -8.655  0.1656E+02  0.1778E+02
     -8.644  0.4354E+01  0.1783E+02
     -8.633  0.1489E+00  0.1783E+02
     -8.623  0.6515E-01  0.1783E+02
     -8.612  0.1445E+01  0.1785E+02
     -8.601  0.4265E+01  0.1790E+02
     -8.590  0.1839E+01  0.1792E+02
     -8.579  0.1611E+01  0.1793E+02
     -8.568  0.7692E+01  0.1802E+02
     -8.557  0.5557E+01  0.1808E+02
     -8.547  0.5557E+00  0.1808E+02
     -8.536  0.1684E+00  0.1809E+02
     -8.525  0.3366E+01  0.1812E+02
     -8.514  0.1581E+02  0.1829E+02
     -8.503  0.1652E+02  0.1847E+02
     -8.492  0.5736E+01  0.1853E+02
     -8.481  0.3788E+01  0.1858E+02
     -8.471  0.6660E+00  0.1858E+02
     -8.460  0.1512E-01  0.1858E+02
     -8.449  0.4334E-01  0.1858E+02
     -8.438  0.2885E+01  0.1862E+02
     -8.427  0.2427E+02  0.1888E+02
     -8.416  0.2908E+02  0.1919E+02
     -8.406  0.5034E+01  0.1925E+02
     -8.395  0.1128E+00  0.1925E+02
     -8.384  0.2907E-03  0.1925E+02
     -8.373  0.8005E-07  0.1925E+02
     -8.362  0.2261E-11  0.1925E+02
     -8.351  0.0000E+00  0.1925E+02
     -8.340  0.0000E+00  0.1925E+02
     -8.330  0.0000E+00  0.1925E+02
     -8.319  0.0000E+00  0.1925E+02
     -8.308  0.9292E-13  0.1925E+02
     -8.297  0.4908E-08  0.1925E+02
     -8.286  0.2603E-04  0.1925E+02
     -8.275  0.1430E-01  0.1925E+02
     -8.264  0.8691E+00  0.1926E+02
     -8.254  0.6544E+01  0.1933E+02
     -8.243  0.6891E+01  0.1941E+02
     -8.232  0.1019E+01  0.1942E+02
     -8.221  0.1882E-01  0.1942E+02
     -8.210  0.3860E-04  0.1942E+02
     -8.199  0.8223E-08  0.1942E+02
     -8.188  0.6649E-12  0.1942E+02
     -8.178  0.2148E-07  0.1942E+02
     -8.167  0.9460E-04  0.1942E+02
     -8.156  0.4332E-01  0.1942E+02
     -8.145  0.2210E+01  0.1944E+02
     -8.134  0.1413E+02  0.1959E+02
     -8.123  0.1271E+02  0.1973E+02
     -8.112  0.1596E+01  0.1975E+02
     -8.102  0.2473E-01  0.1975E+02
     -8.091  0.4227E-04  0.1975E+02
     -8.080  0.7477E-08  0.1975E+02
     -8.069  0.1330E-12  0.1975E+02
     -8.058  0.0000E+00  0.1975E+02
     -8.047  0.0000E+00  0.1975E+02
     -8.037  0.1023E-13  0.1975E+02
     -8.026  0.7996E-09  0.1975E+02
     -8.015  0.6445E-05  0.1975E+02
     -8.004  0.5339E-02  0.1975E+02
     -7.993  0.4816E+00  0.1976E+02
     -7.982  0.5256E+01  0.1981E+02
     -7.971  0.7887E+01  0.1990E+02
     -7.961  0.1681E+01  0.1992E+02
     -7.950  0.4585E-01  0.1992E+02
     -7.939  0.1414E-03  0.1992E+02
     -7.928  0.3260E-04  0.1992E+02
     -7.917  0.2058E-01  0.1992E+02
     -7.906  0.1431E+01  0.1993E+02
     -7.895  0.1223E+02  0.2007E+02
     -7.885  0.1454E+02  0.2022E+02
     -7.874  0.2439E+01  0.2025E+02
     -7.863  0.5148E-01  0.2025E+02
     -7.852  0.1215E-03  0.2025E+02
     -7.841  0.2985E-07  0.2025E+02
     -7.830  0.7365E-12  0.2025E+02
     -7.819  0.0000E+00  0.2025E+02
     -7.809  0.0000E+00  0.2025E+02
     -7.798  0.0000E+00  0.2025E+02
     -7.787  0.0000E+00  0.2025E+02
     -7.776  0.0000E+00  0.2025E+02
     -7.765  0.0000E+00  0.2025E+02
     -7.754  0.0000E+00  0.2025E+02
     -7.743  0.0000E+00  0.2025E+02
     -7.733  0.0000E+00  0.2025E+02
     -7.722  0.0000E+00  0.2025E+02
     -7.711  0.0000E+00  0.2025E+02
     -7.700  0.0000E+00  0.2025E+02
     -7.689  0.0000E+00  0.2025E+02
     -7.678  0.0000E+00  0.2025E+02
     -7.668  0.0000E+00  0.2025E+02
     -7.657  0.0000E+00  0.2025E+02
     -7.646  0.0000E+00  0.2025E+02
     -7.635  0.0000E+00  0.2025E+02
     -7.624  0.0000E+00  0.2025E+02
     -7.613  0.0000E+00  0.2025E+02
     -7.602  0.0000E+00  0.2025E+02
     -7.592  0.0000E+00  0.2025E+02
     -7.581  0.6820E-14  0.2025E+02
     -7.570  0.6547E-09  0.2025E+02
     -7.559  0.6446E-05  0.2025E+02
     -7.548  0.6499E-02  0.2025E+02
     -7.537  0.7089E+00  0.2026E+02
     -7.526  0.9251E+01  0.2036E+02
     -7.516  0.1644E+02  0.2054E+02
     -7.505  0.4167E+01  0.2058E+02
     -7.494  0.1367E+00  0.2058E+02
     -7.483  0.5117E-03  0.2058E+02
     -7.472  0.3826E-05  0.2058E+02
     -7.461  0.4289E-02  0.2058E+02
     -7.450  0.5461E+00  0.2059E+02
     -7.440  0.8255E+01  0.2068E+02
     -7.429  0.1764E+02  0.2087E+02
     -7.418  0.1472E+02  0.2103E+02
     -7.407  0.1635E+02  0.2121E+02
     -7.396  0.3790E+01  0.2125E+02
     -7.385  0.1143E+00  0.2125E+02
     -7.374  0.3921E-03  0.2125E+02
     -7.364  0.1413E-06  0.2125E+02
     -7.353  0.5139E-11  0.2125E+02
     -7.342  0.0000E+00  0.2125E+02
     -7.331  0.0000E+00  0.2125E+02
     -7.320  0.0000E+00  0.2125E+02
     -7.309  0.0000E+00  0.2125E+02
     -7.299  0.0000E+00  0.2125E+02
     -7.288  0.0000E+00  0.2125E+02
     -7.277  0.1193E-13  0.2125E+02
     -7.266  0.9108E-09  0.2125E+02
     -7.255  0.7128E-05  0.2125E+02
     -7.244  0.5736E-02  0.2125E+02
     -7.233  0.5032E+00  0.2126E+02
     -7.223  0.5349E+01  0.2131E+02
     -7.212  0.7829E+01  0.2140E+02
     -7.201  0.1627E+01  0.2142E+02
     -7.190  0.4316E-01  0.2142E+02
     -7.179  0.1294E-03  0.2142E+02
     -7.168  0.4061E-07  0.2142E+02
     -7.157  0.1284E-11  0.2142E+02
     -7.147  0.0000E+00  0.2142E+02
     -7.136  0.0000E+00  0.2142E+02
     -7.125  0.0000E+00  0.2142E+02
     -7.114  0.0000E+00  0.2142E+02
     -7.103  0.0000E+00  0.2142E+02
     -7.092  0.0000E+00  0.2142E+02
     -7.081  0.2557E-14  0.2142E+02
     -7.071  0.2942E-09  0.2142E+02
     -7.060  0.2966E-05  0.2142E+02
     -7.049  0.3061E-02  0.2142E+02
     -7.038  0.3415E+00  0.2142E+02
     -7.027  0.4552E+01  0.2147E+02
     -7.016  0.8254E+01  0.2156E+02
     -7.005  0.2135E+01  0.2158E+02
     -6.995  0.7157E-01  0.2158E+02
     -6.984  0.2741E-03  0.2158E+02
     -6.973  0.1106E-06  0.2158E+02
     -6.962  0.8624E-11  0.2158E+02
     -6.951  0.1028E-06  0.2158E+02
     -6.940  0.2594E-03  0.2158E+02
     -6.929  0.6899E-01  0.2158E+02
     -6.919  0.2094E+01  0.2161E+02
     -6.908  0.8244E+01  0.2170E+02
     -6.897  0.5519E+01  0.2176E+02
     -6.886  0.6993E+01  0.2183E+02