 vasp.5.4.4.18Apr17-6-g9f103f2a35 (build Jun 20 2017 18:00:50) complex          
  
 executed on             LinuxIFC date 2018.03.22  15:18:03
 running on   32 total cores
 distrk:  each k-point on   32 cores,    1 groups
 distr:  one band on NCORES_PER_BAND=   8 cores,    4 groups


--------------------------------------------------------------------------------------------------------


 INCAR:
 POTCAR:    PAW_PBE P 06Sep2000                   
 POTCAR:    PAW_PBE P 06Sep2000                   
   VRHFIN =P : s2p3                                                             
   LEXCH  = PE                                                                  
   EATOM  =   176.0430 eV,   12.9388 Ry                                         
                                                                                
   TITEL  = PAW_PBE P 06Sep2000                                                 
   LULTRA =        F    use ultrasoft PP ?                                      
   IUNSCR =        1    unscreen: 0-lin 1-nonlin 2-no                           
   RPACOR =    1.500    partial core radius                                     
   POMASS =   30.974; ZVAL   =    5.000    mass and valenz                      
   RCORE  =    1.900    outmost cutoff radius                                   
   RWIGS  =    2.330; RWIGS  =    1.233    wigner-seitz radius (au A)           
   ENMAX  =  255.040; ENMIN  =  191.280 eV                                      
   ICORE  =        2    local potential                                         
   LCOR   =        T    correct aug charges                                     
   LPAW   =        T    paw PP                                                  
   EAUG   =  342.924                                                            
   DEXC   =    0.000                                                            
   RMAX   =    1.935    core radius for proj-oper                               
   RAUG   =    1.300    factor for augmentation sphere                          
   RDEP   =    1.931    radius for radial grids                                 
   RDEPT  =    1.794    core radius for aug-charge                              
                                                                                
   Atomic configuration                                                         
    6 entries                                                                   
     n  l   j            E        occ.                                          
     1  0  0.50     -2084.0982   2.0000                                         
     2  0  0.50      -173.9859   2.0000                                         
     2  1  1.50      -124.4865   6.0000                                         
     3  0  0.50       -13.9692   2.0000                                         
     3  1  0.50        -5.5067   3.0000                                         
     3  2  1.50        -5.4423   0.0000                                         
   Description                                                                  
     l       E           TYP  RCUT    TYP  RCUT                                 
     0    -13.9691527     23  1.900                                             
     0    -11.7794650     23  1.900                                             
     1     -5.5066937     23  1.900                                             
     1     -0.2556953     23  1.900                                             
     2     -5.4423304     23  1.900                                             
  local pseudopotential read in
  partial core-charges read in
  partial kinetic energy density read in
  atomic valenz-charges read in
  non local Contribution for L=           0  read in
    real space projection operators read in
  non local Contribution for L=           0  read in
    real space projection operators read in
  non local Contribution for L=           1  read in
    real space projection operators read in
  non local Contribution for L=           1  read in
    real space projection operators read in
    PAW grid and wavefunctions read in
 
   number of l-projection  operators is LMAX  =           4
   number of lm-projection operators is LMMAX =           8
 
  PAW_PBE P 06Sep2000                   :
 energy of atom  1       EATOM= -176.0430
 kinetic energy error for atom=    0.0019 (will be added to EATOM!!)
 
 
 POSCAR: P12                                     
  positions in direct lattice
  No initial velocities read in
 exchange correlation table for  LEXCH =        8
   RHO(1)=    0.500       N(1)  =     2000
   RHO(2)=  100.500       N(2)  =     4000
 


--------------------------------------------------------------------------------------------------------


 ion  position               nearest neighbor table
   1  0.000  0.307  0.919-   2 2.23   2 2.23   3 2.26
   2  0.500  0.307  0.581-   1 2.23   1 2.23   4 2.26
   3  0.000  0.372  0.081-   4 2.23   4 2.23   1 2.26
   4  0.500  0.372  0.419-   3 2.23   3 2.23   2 2.26
   5  0.000  0.467  0.919-   6 2.23   6 2.23   7 2.26
   6  0.500  0.467  0.581-   5 2.23   5 2.23   8 2.26
   7  0.000  0.533  0.081-   8 2.23   8 2.23   5 2.26
   8  0.500  0.533  0.419-   7 2.23   7 2.23   6 2.26
   9  0.000  0.628  0.919-  10 2.23  10 2.23  11 2.26
  10  0.500  0.628  0.581-   9 2.23   9 2.23  12 2.26
  11  0.000  0.693  0.081-  12 2.23  12 2.23   9 2.26
  12  0.500  0.693  0.419-  11 2.23  11 2.23  10 2.26
 
  LATTYP: Found a simple orthorhombic cell.
 ALAT       =     3.3428860000
 B/A-ratio  =     1.3086988309
 C/A-ratio  =     9.7527732026
  
  Lattice vectors:
  
 A1 = (  -3.3428860000,   0.0000000000,   0.0000000000)
 A2 = (   0.0000000000,   0.0000000000,  -4.3748310000)
 A3 = (   0.0000000000, -32.6024090000,   0.0000000000)


Analysis of symmetry for initial positions (statically):
=====================================================================
 Subroutine PRICEL returns:
 Original cell was already a primitive cell.
 

 Routine SETGRP: Setting up the symmetry group for a 
 simple orthorhombic supercell.


 Subroutine GETGRP returns: Found  8 space group operations
 (whereof  4 operations were pure point group operations)
 out of a pool of  8 trial point group operations.


The static configuration has the point symmetry C_2h.
 The point group associated with its full space group is D_2h.


Analysis of symmetry for dynamics (positions and initial velocities):
=====================================================================
 Subroutine PRICEL returns:
 Original cell was already a primitive cell.
 

 Routine SETGRP: Setting up the symmetry group for a 
 simple orthorhombic supercell.


 Subroutine GETGRP returns: Found  8 space group operations
 (whereof  4 operations were pure point group operations)
 out of a pool of  8 trial point group operations.


The dynamic configuration has the point symmetry C_2h.
 The point group associated with its full space group is D_2h.


 Subroutine INISYM returns: Found  8 space group operations
 (whereof  4 operations are pure point group operations),
 and found     1 'primitive' translations

 
 
 KPOINTS: Automatic mesh                          

Automatic generation of k-mesh.
Space group operators:
 irot       det(A)        alpha          n_x          n_y          n_z        tau_x        tau_y        tau_z
    1     1.000000     0.000001     1.000000     0.000000     0.000000     0.000000     0.000000     0.000000
    2    -1.000000     0.000001     1.000000     0.000000     0.000000     0.000000     0.000000     0.000000
    3     1.000000   179.999999     1.000000     0.000000     0.000000     0.000000     0.000000     0.000000
    4    -1.000000   179.999999     1.000000     0.000000     0.000000     0.000000     0.000000     0.000000
    5     1.000000   179.999999     0.000000     1.000000     0.000000    -0.500000     0.000000    -0.500000
    6    -1.000000   179.999999     0.000000     1.000000     0.000000    -0.500000     0.000000    -0.500000
    7     1.000000   179.999999     0.000000     0.000000     1.000000    -0.500000     0.000000    -0.500000
    8    -1.000000   179.999999     0.000000     0.000000     1.000000    -0.500000     0.000000    -0.500000
 
 Subroutine IBZKPT returns following result:
 ===========================================
 
 Found     20 irreducible k-points:
 
 Following reciprocal coordinates:
            Coordinates               Weight
  0.000000  0.000000  0.000000      1.000000
  0.125000  0.000000  0.000000      2.000000
  0.250000  0.000000  0.000000      2.000000
  0.375000  0.000000  0.000000      2.000000
  0.500000  0.000000  0.000000      1.000000
  0.000000  0.000000  0.142857      2.000000
  0.125000  0.000000  0.142857      4.000000
  0.250000  0.000000  0.142857      4.000000
  0.375000  0.000000  0.142857      4.000000
  0.500000  0.000000  0.142857      2.000000
  0.000000  0.000000  0.285714      2.000000
  0.125000  0.000000  0.285714      4.000000
  0.250000  0.000000  0.285714      4.000000
  0.375000  0.000000  0.285714      4.000000
  0.500000  0.000000  0.285714      2.000000
  0.000000  0.000000  0.428571      2.000000
  0.125000  0.000000  0.428571      4.000000
  0.250000  0.000000  0.428571      4.000000
  0.375000  0.000000  0.428571      4.000000
  0.500000  0.000000  0.428571      2.000000
 
 Following cartesian coordinates:
            Coordinates               Weight
  0.000000  0.000000  0.000000      1.000000
  0.037393  0.000000  0.000000      2.000000
  0.074786  0.000000  0.000000      2.000000
  0.112179  0.000000  0.000000      2.000000
  0.149571  0.000000  0.000000      1.000000
  0.000000  0.000000  0.032654      2.000000
  0.037393  0.000000  0.032654      4.000000
  0.074786  0.000000  0.032654      4.000000
  0.112179  0.000000  0.032654      4.000000
  0.149571  0.000000  0.032654      2.000000
  0.000000  0.000000  0.065309      2.000000
  0.037393  0.000000  0.065309      4.000000
  0.074786  0.000000  0.065309      4.000000
  0.112179  0.000000  0.065309      4.000000
  0.149571  0.000000  0.065309      2.000000
  0.000000  0.000000  0.097963      2.000000
  0.037393  0.000000  0.097963      4.000000
  0.074786  0.000000  0.097963      4.000000
  0.112179  0.000000  0.097963      4.000000
  0.149571  0.000000  0.097963      2.000000
 


--------------------------------------------------------------------------------------------------------




 Dimension of arrays:
   k-points           NKPTS =     20   k-points in BZ     NKDIM =     20   number of bands    NBANDS=     40
   number of dos      NEDOS =   2000   number of ions     NIONS =     12
   non local maximal  LDIM  =      4   non local SUM 2l+1 LMDIM =      8
   total plane-waves  NPLWV =  77760
   max r-space proj   IRMAX =      1   max aug-charges    IRDMAX=   5162
   dimension x,y,z NGX =    18 NGY =  180 NGZ =   24
   dimension x,y,z NGXF=    36 NGYF=  360 NGZF=   48
   support grid    NGXF=    36 NGYF=  360 NGZF=   48
   ions per type =              12
   NGX,Y,Z   is equivalent  to a cutoff of   8.95,  9.18,  9.12 a.u.
   NGXF,Y,Z  is equivalent  to a cutoff of  17.90, 18.36, 18.24 a.u.

 SYSTEM =  Generic Input                           
 POSCAR =  P12                                     

 Startparameter for this run:
   NWRITE =      2    write-flag & timer
   PREC   = normal    normal or accurate (medium, high low for compatibility)
   ISTART =      0    job   : 0-new  1-cont  2-samecut
   ICHARG =      2    charge: 1-file 2-atom 10-const
   ISPIN  =      1    spin polarized calculation?
   LNONCOLLINEAR =      F non collinear calculations
   LSORBIT =      F    spin-orbit coupling
   INIWAV =      1    electr: 0-lowe 1-rand  2-diag
   LASPH  =      T    aspherical Exc in radial PAW
   METAGGA=      F    non-selfconsistent MetaGGA calc.

 Electronic Relaxation 1
   ENCUT  =  450.0 eV  33.07 Ry    5.75 a.u.   5.78 56.39  7.57*2*pi/ulx,y,z
   ENINI  =  450.0     initial cutoff
   ENAUG  =  342.9 eV  augmentation charge cutoff
   NELM   =    200;   NELMIN=  2; NELMDL=  0     # of ELM steps 
   EDIFF  = 0.1E-04   stopping-criterion for ELM
   LREAL  =      F    real-space projection
   NLSPLINE    = F    spline interpolate recip. space projectors
   LCOMPAT=      F    compatible to vasp.4.4
   GGA_COMPAT  = T    GGA compatible to vasp.4.4-vasp.4.6
   LMAXPAW     = -100 max onsite density
   LMAXMIX     =    2 max onsite mixed and CHGCAR
   VOSKOWN=      0    Vosko Wilk Nusair interpolation
   ROPT   =    0.00000
 Ionic relaxation
   EDIFFG = -.2E-01   stopping-criterion for IOM
   NSW    =      0    number of steps for IOM
   NBLOCK =      1;   KBLOCK =      1    inner block; outer block 
   IBRION =     -1    ionic relax: 0-MD 1-quasi-New 2-CG
   NFREE  =      1    steps in history (QN), initial steepest desc. (CG)
   ISIF   =      3    stress and relaxation
   IWAVPR =     11    prediction:  0-non 1-charg 2-wave 3-comb
   ISYM   =      2    0-nonsym 1-usesym 2-fastsym
   LCORR  =      T    Harris-Foulkes like correction to forces

   POTIM  = 0.5000    time-step for ionic-motion
   TEIN   =    0.0    initial temperature
   TEBEG  =    0.0;   TEEND  =   0.0 temperature during run
   SMASS  =  -3.00    Nose mass-parameter (am)
   estimated Nose-frequenzy (Omega)   =  0.10E-29 period in steps =****** mass=  -0.255E-27a.u.
   SCALEE = 1.0000    scale energy and forces
   NPACO  =    256;   APACO  = 16.0  distance and # of slots for P.C.
   PSTRESS=    0.0 pullay stress

  Mass of Ions in am
   POMASS =  30.97
  Ionic Valenz
   ZVAL   =   5.00
  Atomic Wigner-Seitz radii
   RWIGS  =  -1.00
  virtual crystal weights 
   VCA    =   1.00
   NELECT =      60.0000    total number of electrons
   NUPDOWN=      -1.0000    fix difference up-down

 DOS related values:
   EMIN   =  10.00;   EMAX   =-10.00  energy-range for DOS
   EFERMI =   0.00
   ISMEAR =     0;   SIGMA  =   0.01  broadening in eV -4-tet -1-fermi 0-gaus

 Electronic relaxation 2 (details)
   IALGO  =     38    algorithm
   LDIAG  =      T    sub-space diagonalisation (order eigenvalues)
   LSUBROT=      F    optimize rotation matrix (better conditioning)
   TURBO    =      0    0=normal 1=particle mesh
   IRESTART =      0    0=no restart 2=restart with 2 vectors
   NREBOOT  =      0    no. of reboots
   NMIN     =      0    reboot dimension
   EREF     =   0.00    reference energy to select bands
   IMIX   =      4    mixing-type and parameters
     AMIX     =   0.40;   BMIX     =  1.00
     AMIX_MAG =   1.60;   BMIX_MAG =  1.00
     AMIN     =   0.10
     WC   =   100.;   INIMIX=   1;  MIXPRE=   1;  MAXMIX= -45

 Intra band minimization:
   WEIMIN = 0.0000     energy-eigenvalue tresh-hold
   EBREAK =  0.63E-07  absolut break condition
   DEPER  =   0.30     relativ break condition  

   TIME   =   0.40     timestep for ELM

  volume/ion in A,a.u.               =      39.73       268.13
  Fermi-wavevector in a.u.,A,eV,Ry     =   0.820379  1.550291  9.157011  0.673021
  Thomas-Fermi vector in A             =   1.931350
 
 Write flags
   LWAVE        =      T    write WAVECAR
   LDOWNSAMPLE  =      F    k-point downsampling of WAVECAR
   LCHARG       =      T    write CHGCAR
   LVTOT        =      F    write LOCPOT, total local potential
   LVHAR        =      T    write LOCPOT, Hartree potential only
   LELF         =      F    write electronic localiz. function (ELF)
   LORBIT       =     11    0 simple, 1 ext, 2 COOP (PROOUT), +10 PAW based schemes


 Dipole corrections
   LMONO  =      F    monopole corrections only (constant potential shift)
   LDIPOL =      F    correct potential (dipole corrections)
   IDIPOL =      0    1-x, 2-y, 3-z, 4-all directions 
   EPSILON=  1.0000000 bulk dielectric constant

 Core level calculations are selected ICORELEVEL =  1
 Exchange correlation treatment:
   GGA     =    PE    GGA type
   LEXCH   =     8    internal setting for exchange type
   VOSKOWN=      0    Vosko Wilk Nusair interpolation
   LHFCALC =     F    Hartree Fock is set to
   LHFONE  =     F    Hartree Fock one center treatment
   AEXX    =    0.0000 exact exchange contribution

 Linear response parameters
   LEPSILON=     F    determine dielectric tensor
   LRPA    =     F    only Hartree local field effects (RPA)
   LNABLA  =     F    use nabla operator in PAW spheres
   LVEL    =     F    velocity operator in full k-point grid
   LINTERFAST=   F  fast interpolation
   KINTER  =     0    interpolate to denser k-point grid
   CSHIFT  =0.1000    complex shift for real part using Kramers Kronig
   OMEGAMAX=  -1.0    maximum frequency
   DEG_THRESHOLD= 0.2000000E-02 threshold for treating states as degnerate
   RTIME   =   -0.100 relaxation time in fs
  (WPLASMAI=    0.000 imaginary part of plasma frequency in eV, 0.658/RTIME)
   DFIELD  = 0.0000000 0.0000000 0.0000000 field for delta impulse in time
 
 Orbital magnetization related:
   ORBITALMAG=     F  switch on orbital magnetization
   LCHIMAG   =     F  perturbation theory with respect to B field
   DQ        =  0.001000  dq finite difference perturbation B field
   LLRAUG    =     F  two centre corrections for induced B field



--------------------------------------------------------------------------------------------------------


 Static calculation
 charge density and potential will be updated during run
 non-spin polarized calculation
 Variant of blocked Davidson
 Davidson routine will perform the subspace rotation
 perform sub-space diagonalisation
    after iterative eigenvector-optimisation
 modified Broyden-mixing scheme, WC =      100.0
 initial mixing is a Kerker type mixing with AMIX =  0.4000 and BMIX =      1.0000
 Hartree-type preconditioning will be used
 using additional bands           10
 reciprocal scheme for non local part
 use partial core corrections
 calculate Harris-corrections to forces 
   (improved forces if not selfconsistent)
 use gradient corrections 
 use of overlap-Matrix (Vanderbilt PP)
 Gauss-broadening in eV      SIGMA  =   0.01


--------------------------------------------------------------------------------------------------------


  energy-cutoff  :      450.00
  volume of cell :      476.80
      direct lattice vectors                 reciprocal lattice vectors
     3.342886000  0.000000000  0.000000000     0.299142717  0.000000000  0.000000000
     0.000000000 32.602409000  0.000000000     0.000000000  0.030672580  0.000000000
     0.000000000  0.000000000  4.374831000     0.000000000  0.000000000  0.228580258

  length of vectors
     3.342886000 32.602409000  4.374831000     0.299142717  0.030672580  0.228580258


 
 k-points in units of 2pi/SCALE and weight: Automatic mesh                          
   0.00000000  0.00000000  0.00000000       0.018
   0.03739284  0.00000000  0.00000000       0.036
   0.07478568  0.00000000  0.00000000       0.036
   0.11217852  0.00000000  0.00000000       0.036
   0.14957136  0.00000000  0.00000000       0.018
   0.00000000  0.00000000  0.03265432       0.036
   0.03739284  0.00000000  0.03265432       0.071
   0.07478568  0.00000000  0.03265432       0.071
   0.11217852  0.00000000  0.03265432       0.071
   0.14957136  0.00000000  0.03265432       0.036
   0.00000000  0.00000000  0.06530865       0.036
   0.03739284  0.00000000  0.06530865       0.071
   0.07478568  0.00000000  0.06530865       0.071
   0.11217852  0.00000000  0.06530865       0.071
   0.14957136  0.00000000  0.06530865       0.036
   0.00000000  0.00000000  0.09796297       0.036
   0.03739284  0.00000000  0.09796297       0.071
   0.07478568  0.00000000  0.09796297       0.071
   0.11217852  0.00000000  0.09796297       0.071
   0.14957136  0.00000000  0.09796297       0.036
 
 k-points in reciprocal lattice and weights: Automatic mesh                          
   0.00000000  0.00000000  0.00000000       0.018
   0.12500000  0.00000000  0.00000000       0.036
   0.25000000  0.00000000  0.00000000       0.036
   0.37500000  0.00000000  0.00000000       0.036
   0.50000000  0.00000000  0.00000000       0.018
   0.00000000  0.00000000  0.14285714       0.036
   0.12500000  0.00000000  0.14285714       0.071
   0.25000000  0.00000000  0.14285714       0.071
   0.37500000  0.00000000  0.14285714       0.071
   0.50000000  0.00000000  0.14285714       0.036
   0.00000000  0.00000000  0.28571429       0.036
   0.12500000  0.00000000  0.28571429       0.071
   0.25000000  0.00000000  0.28571429       0.071
   0.37500000  0.00000000  0.28571429       0.071
   0.50000000  0.00000000  0.28571429       0.036
   0.00000000  0.00000000  0.42857143       0.036
   0.12500000  0.00000000  0.42857143       0.071
   0.25000000  0.00000000  0.42857143       0.071
   0.37500000  0.00000000  0.42857143       0.071
   0.50000000  0.00000000  0.42857143       0.036
 
 position of ions in fractional coordinates (direct lattice) 
   0.00000000  0.30672600  0.91892400
   0.50000000  0.30672600  0.58107600
   0.00000000  0.37246700  0.08107600
   0.50000000  0.37246700  0.41892400
   0.00000000  0.46712900  0.91892400
   0.50000000  0.46712900  0.58107600
   0.00000000  0.53287100  0.08107600
   0.50000000  0.53287100  0.41892400
   0.00000000  0.62753300  0.91892400
   0.50000000  0.62753300  0.58107600
   0.00000000  0.69327400  0.08107600
   0.50000000  0.69327400  0.41892400
 
 position of ions in cartesian coordinates  (Angst):
   0.00000000 10.00000650  4.02013720
   1.67144300 10.00000650  2.54210930
   0.00000000 12.14332147  0.35469380
   1.67144300 12.14332147  1.83272170
   0.00000000 15.22953071  4.02013720
   1.67144300 15.22953071  2.54210930
   0.00000000 17.37287829  0.35469380
   1.67144300 17.37287829  1.83272170
   0.00000000 20.45908753  4.02013720
   1.67144300 20.45908753  2.54210930
   0.00000000 22.60240250  0.35469380
   1.67144300 22.60240250  1.83272170
 


--------------------------------------------------------------------------------------------------------


 k-point  1 :   0.0000 0.0000 0.0000  plane waves:   10373
 k-point  2 :   0.1250 0.0000 0.0000  plane waves:   10387
 k-point  3 :   0.2500 0.0000 0.0000  plane waves:   10360
 k-point  4 :   0.3750 0.0000 0.0000  plane waves:   10334
 k-point  5 :   0.5000 0.0000 0.0000  plane waves:   10356
 k-point  6 :   0.0000 0.0000 0.1429  plane waves:   10357
 k-point  7 :   0.1250 0.0000 0.1429  plane waves:   10355
 k-point  8 :   0.2500 0.0000 0.1429  plane waves:   10340
 k-point  9 :   0.3750 0.0000 0.1429  plane waves:   10337
 k-point 10 :   0.5000 0.0000 0.1429  plane waves:   10350
 k-point 11 :   0.0000 0.0000 0.2857  plane waves:   10355
 k-point 12 :   0.1250 0.0000 0.2857  plane waves:   10330
 k-point 13 :   0.2500 0.0000 0.2857  plane waves:   10307
 k-point 14 :   0.3750 0.0000 0.2857  plane waves:   10352
 k-point 15 :   0.5000 0.0000 0.2857  plane waves:   10366
 k-point 16 :   0.0000 0.0000 0.4286  plane waves:   10291
 k-point 17 :   0.1250 0.0000 0.4286  plane waves:   10278
 k-point 18 :   0.2500 0.0000 0.4286  plane waves:   10300
 k-point 19 :   0.3750 0.0000 0.4286  plane waves:   10345
 k-point 20 :   0.5000 0.0000 0.4286  plane waves:   10350

 maximum and minimum number of plane-waves per node :      1328     1261

 maximum number of plane-waves:     10387
 maximum index in each direction: 
   IXMAX=    5   IYMAX=   56   IZMAX=    7
   IXMIN=   -6   IYMIN=  -56   IZMIN=   -7


 parallel 3D FFT for wavefunctions:
    minimum data exchange during FFTs selected (reduces bandwidth)
 parallel 3D FFT for charge:
    minimum data exchange during FFTs selected (reduces bandwidth)


 total amount of memory used by VASP MPI-rank0    39791. kBytes
=======================================================================

   base      :      30000. kBytes
   nonl-proj :       1901. kBytes
   fftplans  :       1467. kBytes
   grid      :       2232. kBytes
   one-center:          6. kBytes
   wavefun   :       4185. kBytes
 
     INWAV:  cpu time    0.0000: real time    0.0000
 Broyden mixing: mesh for mixing (old mesh)
   NGX = 11   NGY =113   NGZ = 15
  (NGX  = 36   NGY  =360   NGZ  = 48)
  gives a total of  18645 points

 initial charge density was supplied:
 charge density of overlapping atoms calculated
 number of electron      60.0000000 magnetization 
 keeping initial charge density in first step


--------------------------------------------------------------------------------------------------------


 Maximum index for augmentation-charges          651 (set IRDMAX)


--------------------------------------------------------------------------------------------------------


 First call to EWALD:  gamma=   0.227
 Maximum number of real-space cells 6x 1x 5
 Maximum number of reciprocal cells 1x10x 2

    FEWALD:  cpu time    0.0018: real time    0.0018


--------------------------------------- Iteration      1(   1)  ---------------------------------------


    POTLOK:  cpu time    0.0356: real time    0.0372
    SETDIJ:  cpu time    0.0647: real time    0.0647
     EDDAV:  cpu time    0.8952: real time    0.8970
       DOS:  cpu time    0.0008: real time    0.0008
    --------------------------------------------
      LOOP:  cpu time    0.9963: real time    0.9997

 eigenvalue-minimisations  :  1600
 total energy-change (2. order) : 0.3576929E+03  (-0.2042957E+04)
 number of electron      60.0000000 magnetization 
 augmentation part       60.0000000 magnetization 

 Free energy of the ion-electron system (eV)
  ---------------------------------------------------
  alpha Z        PSCENC =        30.28014394
  Ewald energy   TEWEN  =     14975.37070712
  -Hartree energ DENC   =    -16930.57457869
  -exchange      EXHF   =         0.00000000
  -V(xc)+E(xc)   XCENC  =        40.42313226
  PAW double counting   =      1677.12035881    -1579.18296132
  entropy T*S    EENTRO =        -0.00045214
  eigenvalues    EBANDS =        31.76283301
  atomic energy  EATOM  =      2112.49373795
  Solvation  Ediel_sol  =         0.00000000
  ---------------------------------------------------
  free energy    TOTEN  =       357.69292092 eV

  energy without entropy =      357.69337306  energy(sigma->0) =      357.69314699


--------------------------------------------------------------------------------------------------------




--------------------------------------- Iteration      1(   2)  ---------------------------------------


     EDDAV:  cpu time    1.1638: real time    1.1663
       DOS:  cpu time    0.0008: real time    0.0008
    --------------------------------------------
      LOOP:  cpu time    1.1646: real time    1.1671

 eigenvalue-minimisations  :  2288
 total energy-change (2. order) :-0.3820751E+03  (-0.3695720E+03)
 number of electron      60.0000000 magnetization 
 augmentation part       60.0000000 magnetization 

 Free energy of the ion-electron system (eV)
  ---------------------------------------------------
  alpha Z        PSCENC =        30.28014394
  Ewald energy   TEWEN  =     14975.37070712
  -Hartree energ DENC   =    -16930.57457869
  -exchange      EXHF   =         0.00000000
  -V(xc)+E(xc)   XCENC  =        40.42313226
  PAW double counting   =      1677.12035881    -1579.18296132
  entropy T*S    EENTRO =        -0.00020170
  eigenvalues    EBANDS =      -350.31250430
  atomic energy  EATOM  =      2112.49373795
  Solvation  Ediel_sol  =         0.00000000
  ---------------------------------------------------
  free energy    TOTEN  =       -24.38216594 eV

  energy without entropy =      -24.38196424  energy(sigma->0) =      -24.38206509


--------------------------------------------------------------------------------------------------------




--------------------------------------- Iteration      1(   3)  ---------------------------------------


     EDDAV:  cpu time    1.0081: real time    1.0095
       DOS:  cpu time    0.0008: real time    0.0008
    --------------------------------------------
      LOOP:  cpu time    1.0089: real time    1.0103

 eigenvalue-minimisations  :  1896
 total energy-change (2. order) :-0.3872502E+02  (-0.3813392E+02)
 number of electron      60.0000000 magnetization 
 augmentation part       60.0000000 magnetization 

 Free energy of the ion-electron system (eV)
  ---------------------------------------------------
  alpha Z        PSCENC =        30.28014394
  Ewald energy   TEWEN  =     14975.37070712
  -Hartree energ DENC   =    -16930.57457869
  -exchange      EXHF   =         0.00000000
  -V(xc)+E(xc)   XCENC  =        40.42313226
  PAW double counting   =      1677.12035881    -1579.18296132
  entropy T*S    EENTRO =        -0.00026396
  eigenvalues    EBANDS =      -389.03746685
  atomic energy  EATOM  =      2112.49373795
  Solvation  Ediel_sol  =         0.00000000
  ---------------------------------------------------
  free energy    TOTEN  =       -63.10719076 eV

  energy without entropy =      -63.10692679  energy(sigma->0) =      -63.10705878


--------------------------------------------------------------------------------------------------------




--------------------------------------- Iteration      1(   4)  ---------------------------------------


     EDDAV:  cpu time    1.1766: real time    1.1793
       DOS:  cpu time    0.0008: real time    0.0008
    --------------------------------------------
      LOOP:  cpu time    1.1774: real time    1.1802

 eigenvalue-minimisations  :  2360
 total energy-change (2. order) :-0.1435700E+01  (-0.1427592E+01)
 number of electron      60.0000000 magnetization 
 augmentation part       60.0000000 magnetization 

 Free energy of the ion-electron system (eV)
  ---------------------------------------------------
  alpha Z        PSCENC =        30.28014394
  Ewald energy   TEWEN  =     14975.37070712
  -Hartree energ DENC   =    -16930.57457869
  -exchange      EXHF   =         0.00000000
  -V(xc)+E(xc)   XCENC  =        40.42313226
  PAW double counting   =      1677.12035881    -1579.18296132
  entropy T*S    EENTRO =        -0.00027356
  eigenvalues    EBANDS =      -390.47315753
  atomic energy  EATOM  =      2112.49373795
  Solvation  Ediel_sol  =         0.00000000
  ---------------------------------------------------
  free energy    TOTEN  =       -64.54289103 eV

  energy without entropy =      -64.54261748  energy(sigma->0) =      -64.54275426


--------------------------------------------------------------------------------------------------------




--------------------------------------- Iteration      1(   5)  ---------------------------------------


     EDDAV:  cpu time    1.2659: real time    1.2676
       DOS:  cpu time    0.0008: real time    0.0008
    CHARGE:  cpu time    0.0490: real time    0.0492
    MIXING:  cpu time    0.0007: real time    0.0008
    --------------------------------------------
      LOOP:  cpu time    1.3165: real time    1.3184

 eigenvalue-minimisations  :  2440
 total energy-change (2. order) :-0.3825270E-01  (-0.3821115E-01)
 number of electron      59.9999987 magnetization 
 augmentation part       -6.5352398 magnetization 

 Broyden mixing:
  rms(total) = 0.17695E+01    rms(broyden)= 0.17695E+01
  rms(prec ) = 0.17749E+01
  weight for this iteration     100.00

 Free energy of the ion-electron system (eV)
  ---------------------------------------------------
  alpha Z        PSCENC =        30.28014394
  Ewald energy   TEWEN  =     14975.37070712
  -Hartree energ DENC   =    -16930.57457869
  -exchange      EXHF   =         0.00000000
  -V(xc)+E(xc)   XCENC  =        40.42313226
  PAW double counting   =      1677.12035881    -1579.18296132
  entropy T*S    EENTRO =        -0.00025642
  eigenvalues    EBANDS =      -390.51142737
  atomic energy  EATOM  =      2112.49373795
  Solvation  Ediel_sol  =         0.00000000
  ---------------------------------------------------
  free energy    TOTEN  =       -64.58114373 eV

  energy without entropy =      -64.58088732  energy(sigma->0) =      -64.58101553


--------------------------------------------------------------------------------------------------------




--------------------------------------- Iteration      1(   6)  ---------------------------------------


    POTLOK:  cpu time    0.0194: real time    0.0214
    SETDIJ:  cpu time    0.0650: real time    0.0650
     EDDAV:  cpu time    1.0643: real time    1.0656
       DOS:  cpu time    0.0008: real time    0.0008
    CHARGE:  cpu time    0.0483: real time    0.0483
    MIXING:  cpu time    0.0008: real time    0.0008
    --------------------------------------------
      LOOP:  cpu time    1.1987: real time    1.2019

 eigenvalue-minimisations  :  2064
 total energy-change (2. order) : 0.3341587E+00  (-0.2097496E-01)
 number of electron      59.9999987 magnetization 
 augmentation part       -6.4976041 magnetization 

 Broyden mixing:
  rms(total) = 0.10490E+01    rms(broyden)= 0.10490E+01
  rms(prec ) = 0.10522E+01
  weight for this iteration     100.00

 eigenvalues of (default mixing * dielectric matrix)
  average eigenvalue GAMMA=   2.4445
  2.4445

 Free energy of the ion-electron system (eV)
  ---------------------------------------------------
  alpha Z        PSCENC =        30.28014394
  Ewald energy   TEWEN  =     14975.37070712
  -Hartree energ DENC   =    -16940.37929471
  -exchange      EXHF   =         0.00000000
  -V(xc)+E(xc)   XCENC  =        41.48361060
  PAW double counting   =      3147.05179182    -3049.57890584
  entropy T*S    EENTRO =        -0.00021132
  eigenvalues    EBANDS =      -380.96856458
  atomic energy  EATOM  =      2112.49373795
  Solvation  Ediel_sol  =         0.00000000
  ---------------------------------------------------
  free energy    TOTEN  =       -64.24698503 eV

  energy without entropy =      -64.24677371  energy(sigma->0) =      -64.24687937


--------------------------------------------------------------------------------------------------------




--------------------------------------- Iteration      1(   7)  ---------------------------------------


    POTLOK:  cpu time    0.0190: real time    0.0203
    SETDIJ:  cpu time    0.0656: real time    0.0656
     EDDAV:  cpu time    1.1192: real time    1.1208
       DOS:  cpu time    0.0009: real time    0.0009
    CHARGE:  cpu time    0.0501: real time    0.0501
    MIXING:  cpu time    0.0007: real time    0.0007
    --------------------------------------------
      LOOP:  cpu time    1.2554: real time    1.2583

 eigenvalue-minimisations  :  2024
 total energy-change (2. order) : 0.1462632E+00  (-0.4025616E-01)
 number of electron      59.9999987 magnetization 
 augmentation part       -6.4473211 magnetization 

 Broyden mixing:
  rms(total) = 0.51796E-01    rms(broyden)= 0.51796E-01
  rms(prec ) = 0.52941E-01
  weight for this iteration     100.00

 eigenvalues of (default mixing * dielectric matrix)
  average eigenvalue GAMMA=   1.7508
  1.0145  2.4871

 Free energy of the ion-electron system (eV)
  ---------------------------------------------------
  alpha Z        PSCENC =        30.28014394
  Ewald energy   TEWEN  =     14975.37070712
  -Hartree energ DENC   =    -16959.17718730
  -exchange      EXHF   =         0.00000000
  -V(xc)+E(xc)   XCENC  =        43.18825175
  PAW double counting   =      6284.37668854    -6187.47144057
  entropy T*S    EENTRO =        -0.00023983
  eigenvalues    EBANDS =      -363.16138345
  atomic energy  EATOM  =      2112.49373795
  Solvation  Ediel_sol  =         0.00000000
  ---------------------------------------------------
  free energy    TOTEN  =       -64.10072187 eV

  energy without entropy =      -64.10048204  energy(sigma->0) =      -64.10060195


--------------------------------------------------------------------------------------------------------




--------------------------------------- Iteration      1(   8)  ---------------------------------------


    POTLOK:  cpu time    0.0189: real time    0.0206
    SETDIJ:  cpu time    0.0649: real time    0.0649
     EDDAV:  cpu time    1.0967: real time    1.0981
       DOS:  cpu time    0.0009: real time    0.0009
    CHARGE:  cpu time    0.0512: real time    0.0512
    MIXING:  cpu time    0.0007: real time    0.0007
    --------------------------------------------
      LOOP:  cpu time    1.2334: real time    1.2363

 eigenvalue-minimisations  :  2096
 total energy-change (2. order) :-0.9109407E-03  (-0.2906416E-02)
 number of electron      59.9999987 magnetization 
 augmentation part       -6.4550116 magnetization 

 Broyden mixing:
  rms(total) = 0.32850E-01    rms(broyden)= 0.32849E-01
  rms(prec ) = 0.33606E-01
  weight for this iteration     100.00

 eigenvalues of (default mixing * dielectric matrix)
  average eigenvalue GAMMA=   1.5461
  2.5190  1.0597  1.0597

 Free energy of the ion-electron system (eV)
  ---------------------------------------------------
  alpha Z        PSCENC =        30.28014394
  Ewald energy   TEWEN  =     14975.37070712
  -Hartree energ DENC   =    -16959.63895404
  -exchange      EXHF   =         0.00000000
  -V(xc)+E(xc)   XCENC  =        43.21499098
  PAW double counting   =      6373.94051325    -6276.98640213
  entropy T*S    EENTRO =        -0.00021436
  eigenvalues    EBANDS =      -362.77615551
  atomic energy  EATOM  =      2112.49373795
  Solvation  Ediel_sol  =         0.00000000
  ---------------------------------------------------
  free energy    TOTEN  =       -64.10163281 eV

  energy without entropy =      -64.10141845  energy(sigma->0) =      -64.10152563


--------------------------------------------------------------------------------------------------------




--------------------------------------- Iteration      1(   9)  ---------------------------------------


    POTLOK:  cpu time    0.0205: real time    0.0206
    SETDIJ:  cpu time    0.0649: real time    0.0649
     EDDAV:  cpu time    1.2064: real time    1.2077
       DOS:  cpu time    0.0008: real time    0.0008
    CHARGE:  cpu time    0.0514: real time    0.0514
    MIXING:  cpu time    0.0007: real time    0.0007
    --------------------------------------------
      LOOP:  cpu time    1.3447: real time    1.3461

 eigenvalue-minimisations  :  2304
 total energy-change (2. order) : 0.2870326E-03  (-0.2132657E-03)
 number of electron      59.9999987 magnetization 
 augmentation part       -6.4570851 magnetization 

 Broyden mixing:
  rms(total) = 0.22005E-01    rms(broyden)= 0.22005E-01
  rms(prec ) = 0.22592E-01
  weight for this iteration     100.00

 eigenvalues of (default mixing * dielectric matrix)
  average eigenvalue GAMMA=   1.6791
  2.1033  2.1033  0.9431  1.5670

 Free energy of the ion-electron system (eV)
  ---------------------------------------------------
  alpha Z        PSCENC =        30.28014394
  Ewald energy   TEWEN  =     14975.37070712
  -Hartree energ DENC   =    -16960.48077611
  -exchange      EXHF   =         0.00000000
  -V(xc)+E(xc)   XCENC  =        43.23324786
  PAW double counting   =      6408.22455839    -6311.24577424
  entropy T*S    EENTRO =        -0.00021037
  eigenvalues    EBANDS =      -361.97698032
  atomic energy  EATOM  =      2112.49373795
  Solvation  Ediel_sol  =         0.00000000
  ---------------------------------------------------
  free energy    TOTEN  =       -64.10134578 eV

  energy without entropy =      -64.10113541  energy(sigma->0) =      -64.10124059


--------------------------------------------------------------------------------------------------------




--------------------------------------- Iteration      1(  10)  ---------------------------------------


    POTLOK:  cpu time    0.0191: real time    0.0209
    SETDIJ:  cpu time    0.0648: real time    0.0650
     EDDAV:  cpu time    1.0920: real time    1.1165
       DOS:  cpu time    0.0008: real time    0.0008
    CHARGE:  cpu time    0.0513: real time    0.0513
    MIXING:  cpu time    0.0007: real time    0.0007
    --------------------------------------------
      LOOP:  cpu time    1.2287: real time    1.2553

 eigenvalue-minimisations  :  2000
 total energy-change (2. order) : 0.2600050E-03  (-0.1152155E-03)
 number of electron      59.9999987 magnetization 
 augmentation part       -6.4591951 magnetization 

 Broyden mixing:
  rms(total) = 0.82627E-02    rms(broyden)= 0.82627E-02
  rms(prec ) = 0.88819E-02
  weight for this iteration     100.00

 eigenvalues of (default mixing * dielectric matrix)
  average eigenvalue GAMMA=   1.6462
  2.4329  2.4329  0.9520  1.2066  1.2066

 Free energy of the ion-electron system (eV)
  ---------------------------------------------------
  alpha Z        PSCENC =        30.28014394
  Ewald energy   TEWEN  =     14975.37070712
  -Hartree energ DENC   =    -16961.86149137
  -exchange      EXHF   =         0.00000000
  -V(xc)+E(xc)   XCENC  =        43.22233258
  PAW double counting   =      6343.47632604    -6246.45844090
  entropy T*S    EENTRO =        -0.00020577
  eigenvalues    EBANDS =      -360.62419536
  atomic energy  EATOM  =      2112.49373795
  Solvation  Ediel_sol  =         0.00000000
  ---------------------------------------------------
  free energy    TOTEN  =       -64.10108577 eV

  energy without entropy =      -64.10088001  energy(sigma->0) =      -64.10098289


--------------------------------------------------------------------------------------------------------




--------------------------------------- Iteration      1(  11)  ---------------------------------------


    POTLOK:  cpu time    0.0202: real time    0.0204
    SETDIJ:  cpu time    0.0650: real time    0.0650
     EDDAV:  cpu time    1.1031: real time    1.1045
       DOS:  cpu time    0.0008: real time    0.0008
    CHARGE:  cpu time    0.0505: real time    0.0505
    MIXING:  cpu time    0.0007: real time    0.0007
    --------------------------------------------
      LOOP:  cpu time    1.2405: real time    1.2420

 eigenvalue-minimisations  :  2104
 total energy-change (2. order) : 0.7747098E-04  (-0.2446091E-04)
 number of electron      59.9999987 magnetization 
 augmentation part       -6.4588866 magnetization 

 Broyden mixing:
  rms(total) = 0.53838E-02    rms(broyden)= 0.53838E-02
  rms(prec ) = 0.58842E-02
  weight for this iteration     100.00

 eigenvalues of (default mixing * dielectric matrix)
  average eigenvalue GAMMA=   1.5721
  2.4693  2.4693  1.3736  1.3736  0.8734  0.8734

 Free energy of the ion-electron system (eV)
  ---------------------------------------------------
  alpha Z        PSCENC =        30.28014394
  Ewald energy   TEWEN  =     14975.37070712
  -Hartree energ DENC   =    -16962.95184608
  -exchange      EXHF   =         0.00000000
  -V(xc)+E(xc)   XCENC  =        43.24771334
  PAW double counting   =      6373.73222097    -6276.71059814
  entropy T*S    EENTRO =        -0.00020636
  eigenvalues    EBANDS =      -359.56288104
  atomic energy  EATOM  =      2112.49373795
  Solvation  Ediel_sol  =         0.00000000
  ---------------------------------------------------
  free energy    TOTEN  =       -64.10100830 eV

  energy without entropy =      -64.10080194  energy(sigma->0) =      -64.10090512


--------------------------------------------------------------------------------------------------------




--------------------------------------- Iteration      1(  12)  ---------------------------------------


    POTLOK:  cpu time    0.0195: real time    0.0212
    SETDIJ:  cpu time    0.0650: real time    0.0650
     EDDAV:  cpu time    1.0360: real time    1.0375
       DOS:  cpu time    0.0008: real time    0.0008
    CHARGE:  cpu time    0.0531: real time    0.0533
    MIXING:  cpu time    0.0008: real time    0.0008
    --------------------------------------------
      LOOP:  cpu time    1.1751: real time    1.1785

 eigenvalue-minimisations  :  1936
 total energy-change (2. order) :-0.6107805E-04  (-0.5031263E-05)
 number of electron      59.9999987 magnetization 
 augmentation part       -6.4588137 magnetization 

 Broyden mixing:
  rms(total) = 0.16248E-02    rms(broyden)= 0.16248E-02
  rms(prec ) = 0.24322E-02
  weight for this iteration     100.00

 eigenvalues of (default mixing * dielectric matrix)
  average eigenvalue GAMMA=   1.7311
  3.0184  2.5246  1.7786  1.7786  1.0078  1.0049  1.0049

 Free energy of the ion-electron system (eV)
  ---------------------------------------------------
  alpha Z        PSCENC =        30.28014394
  Ewald energy   TEWEN  =     14975.37070712
  -Hartree energ DENC   =    -16963.73233381
  -exchange      EXHF   =         0.00000000
  -V(xc)+E(xc)   XCENC  =        43.25098923
  PAW double counting   =      6362.42620988    -6265.40340967
  entropy T*S    EENTRO =        -0.00020643
  eigenvalues    EBANDS =      -358.78690759
  atomic energy  EATOM  =      2112.49373795
  Solvation  Ediel_sol  =         0.00000000
  ---------------------------------------------------
  free energy    TOTEN  =       -64.10106938 eV

  energy without entropy =      -64.10086295  energy(sigma->0) =      -64.10096617


--------------------------------------------------------------------------------------------------------




--------------------------------------- Iteration      1(  13)  ---------------------------------------


    POTLOK:  cpu time    0.0194: real time    0.0211
    SETDIJ:  cpu time    0.0650: real time    0.0650
     EDDAV:  cpu time    1.0232: real time    1.0244
       DOS:  cpu time    0.0008: real time    0.0008
    CHARGE:  cpu time    0.0496: real time    0.0496
    MIXING:  cpu time    0.0008: real time    0.0008
    --------------------------------------------
      LOOP:  cpu time    1.1587: real time    1.1617

 eigenvalue-minimisations  :  1904
 total energy-change (2. order) :-0.1466889E-03  (-0.1061052E-04)
 number of electron      59.9999987 magnetization 
 augmentation part       -6.4584465 magnetization 

 Broyden mixing:
  rms(total) = 0.21933E-02    rms(broyden)= 0.21933E-02
  rms(prec ) = 0.24061E-02
  weight for this iteration     100.00

 eigenvalues of (default mixing * dielectric matrix)
  average eigenvalue GAMMA=   1.7315
  3.4900  2.5396  1.9749  1.2915  1.2915  1.3352  0.9645  0.9645

 Free energy of the ion-electron system (eV)
  ---------------------------------------------------
  alpha Z        PSCENC =        30.28014394
  Ewald energy   TEWEN  =     14975.37070712
  -Hartree energ DENC   =    -16965.03348403
  -exchange      EXHF   =         0.00000000
  -V(xc)+E(xc)   XCENC  =        43.26188258
  PAW double counting   =      6358.03318907    -6261.01060535
  entropy T*S    EENTRO =        -0.00020767
  eigenvalues    EBANDS =      -357.49657968
  atomic energy  EATOM  =      2112.49373795
  Solvation  Ediel_sol  =         0.00000000
  ---------------------------------------------------
  free energy    TOTEN  =       -64.10121607 eV

  energy without entropy =      -64.10100840  energy(sigma->0) =      -64.10111224


--------------------------------------------------------------------------------------------------------




--------------------------------------- Iteration      1(  14)  ---------------------------------------


    POTLOK:  cpu time    0.0193: real time    0.0208
    SETDIJ:  cpu time    0.0651: real time    0.0651
     EDDAV:  cpu time    0.8943: real time    0.8956
       DOS:  cpu time    0.0009: real time    0.0009
    CHARGE:  cpu time    0.0513: real time    0.0513
    MIXING:  cpu time    0.0009: real time    0.0009
    --------------------------------------------
      LOOP:  cpu time    1.0317: real time    1.0346

 eigenvalue-minimisations  :  1536
 total energy-change (2. order) :-0.1490656E-03  (-0.1880644E-05)
 number of electron      59.9999987 magnetization 
 augmentation part       -6.4583931 magnetization 

 Broyden mixing:
  rms(total) = 0.17486E-02    rms(broyden)= 0.17486E-02
  rms(prec ) = 0.18621E-02
  weight for this iteration     100.00

 eigenvalues of (default mixing * dielectric matrix)
  average eigenvalue GAMMA=   1.9421
  4.5942  2.6031  2.6031  1.8257  1.8257  1.0712  1.0712  0.9425  0.9425

 Free energy of the ion-electron system (eV)
  ---------------------------------------------------
  alpha Z        PSCENC =        30.28014394
  Ewald energy   TEWEN  =     14975.37070712
  -Hartree energ DENC   =    -16965.60041457
  -exchange      EXHF   =         0.00000000
  -V(xc)+E(xc)   XCENC  =        43.26430194
  PAW double counting   =      6356.86351755    -6259.84103404
  entropy T*S    EENTRO =        -0.00020833
  eigenvalues    EBANDS =      -356.93211669
  atomic energy  EATOM  =      2112.49373795
  Solvation  Ediel_sol  =         0.00000000
  ---------------------------------------------------
  free energy    TOTEN  =       -64.10136514 eV

  energy without entropy =      -64.10115681  energy(sigma->0) =      -64.10126097


--------------------------------------------------------------------------------------------------------




--------------------------------------- Iteration      1(  15)  ---------------------------------------


    POTLOK:  cpu time    0.0207: real time    0.0209
    SETDIJ:  cpu time    0.0649: real time    0.0813
     EDDAV:  cpu time    0.9303: real time    0.9316
       DOS:  cpu time    0.0008: real time    0.0008
    CHARGE:  cpu time    0.0508: real time    0.0509
    MIXING:  cpu time    0.0009: real time    0.0009
    --------------------------------------------
      LOOP:  cpu time    1.0684: real time    1.0864

 eigenvalue-minimisations  :  1632
 total energy-change (2. order) :-0.2290042E-03  (-0.2604592E-05)
 number of electron      59.9999987 magnetization 
 augmentation part       -6.4582978 magnetization 

 Broyden mixing:
  rms(total) = 0.12588E-02    rms(broyden)= 0.12588E-02
  rms(prec ) = 0.12823E-02
  weight for this iteration     100.00

 eigenvalues of (default mixing * dielectric matrix)
  average eigenvalue GAMMA=   1.9787
  5.7306  2.5822  2.5822  1.8138  1.5198  1.5198  1.2184  0.9571  0.9571  0.9060

 Free energy of the ion-electron system (eV)
  ---------------------------------------------------
  alpha Z        PSCENC =        30.28014394
  Ewald energy   TEWEN  =     14975.37070712
  -Hartree energ DENC   =    -16966.28140658
  -exchange      EXHF   =         0.00000000
  -V(xc)+E(xc)   XCENC  =        43.26662220
  PAW double counting   =      6361.32865190    -6264.30647930
  entropy T*S    EENTRO =        -0.00020924
  eigenvalues    EBANDS =      -356.25336212
  atomic energy  EATOM  =      2112.49373795
  Solvation  Ediel_sol  =         0.00000000
  ---------------------------------------------------
  free energy    TOTEN  =       -64.10159414 eV

  energy without entropy =      -64.10138490  energy(sigma->0) =      -64.10148952


--------------------------------------------------------------------------------------------------------




--------------------------------------- Iteration      1(  16)  ---------------------------------------


    POTLOK:  cpu time    0.0195: real time    0.0211
    SETDIJ:  cpu time    0.0649: real time    0.0649
     EDDAV:  cpu time    0.8404: real time    0.8416
       DOS:  cpu time    0.0008: real time    0.0008
    CHARGE:  cpu time    0.0510: real time    0.0510
    MIXING:  cpu time    0.0011: real time    0.0011
    --------------------------------------------
      LOOP:  cpu time    0.9777: real time    0.9806

 eigenvalue-minimisations  :  1376
 total energy-change (2. order) :-0.4293467E-04  (-0.2263609E-06)
 number of electron      59.9999987 magnetization 
 augmentation part       -6.4582933 magnetization 

 Broyden mixing:
  rms(total) = 0.27502E-03    rms(broyden)= 0.27501E-03
  rms(prec ) = 0.31686E-03
  weight for this iteration     100.00

 eigenvalues of (default mixing * dielectric matrix)
  average eigenvalue GAMMA=   2.1160
  6.8251  2.9206  2.7157  2.1057  1.6759  1.6759  1.5378  1.0037  1.0037  0.9057
  0.9057

 Free energy of the ion-electron system (eV)
  ---------------------------------------------------
  alpha Z        PSCENC =        30.28014394
  Ewald energy   TEWEN  =     14975.37070712
  -Hartree energ DENC   =    -16966.40464459
  -exchange      EXHF   =         0.00000000
  -V(xc)+E(xc)   XCENC  =        43.26621418
  PAW double counting   =      6360.46940323    -6263.44679858
  entropy T*S    EENTRO =        -0.00020910
  eigenvalues    EBANDS =      -356.13019122
  atomic energy  EATOM  =      2112.49373795
  Solvation  Ediel_sol  =         0.00000000
  ---------------------------------------------------
  free energy    TOTEN  =       -64.10163707 eV

  energy without entropy =      -64.10142798  energy(sigma->0) =      -64.10153253


--------------------------------------------------------------------------------------------------------




--------------------------------------- Iteration      1(  17)  ---------------------------------------


    POTLOK:  cpu time    0.0198: real time    0.0213
    SETDIJ:  cpu time    0.0652: real time    0.0652
     EDDAV:  cpu time    0.8393: real time    0.8406
       DOS:  cpu time    0.0008: real time    0.0008
    CHARGE:  cpu time    0.0509: real time    0.0509
    MIXING:  cpu time    0.0011: real time    0.0011
    --------------------------------------------
      LOOP:  cpu time    0.9770: real time    0.9799

 eigenvalue-minimisations  :  1392
 total energy-change (2. order) :-0.5593875E-04  (-0.1807124E-06)
 number of electron      59.9999987 magnetization 
 augmentation part       -6.4583177 magnetization 

 Broyden mixing:
  rms(total) = 0.20376E-03    rms(broyden)= 0.20376E-03
  rms(prec ) = 0.21631E-03
  weight for this iteration     100.00

 eigenvalues of (default mixing * dielectric matrix)
  average eigenvalue GAMMA=   2.0764
  7.3496  3.1822  2.4132  2.1590  1.6333  1.6333  1.6616  0.9525  0.9602  0.9602
  1.0061  1.0061

 Free energy of the ion-electron system (eV)
  ---------------------------------------------------
  alpha Z        PSCENC =        30.28014394
  Ewald energy   TEWEN  =     14975.37070712
  -Hartree energ DENC   =    -16966.50417686
  -exchange      EXHF   =         0.00000000
  -V(xc)+E(xc)   XCENC  =        43.26595379
  PAW double counting   =      6361.16214790    -6264.13929896
  entropy T*S    EENTRO =        -0.00020902
  eigenvalues    EBANDS =      -356.03069886
  atomic energy  EATOM  =      2112.49373795
  Solvation  Ediel_sol  =         0.00000000
  ---------------------------------------------------
  free energy    TOTEN  =       -64.10169301 eV

  energy without entropy =      -64.10148399  energy(sigma->0) =      -64.10158850


--------------------------------------------------------------------------------------------------------




--------------------------------------- Iteration      1(  18)  ---------------------------------------


    POTLOK:  cpu time    0.0196: real time    0.0210
    SETDIJ:  cpu time    0.0650: real time    0.0651
     EDDAV:  cpu time    0.7900: real time    0.7913
       DOS:  cpu time    0.0008: real time    0.0008
    CHARGE:  cpu time    0.0512: real time    0.0512
    MIXING:  cpu time    0.0011: real time    0.0011
    --------------------------------------------
      LOOP:  cpu time    0.9278: real time    0.9305

 eigenvalue-minimisations  :  1264
 total energy-change (2. order) :-0.1182755E-04  (-0.2975619E-07)
 number of electron      59.9999987 magnetization 
 augmentation part       -6.4583218 magnetization 

 Broyden mixing:
  rms(total) = 0.12162E-03    rms(broyden)= 0.12162E-03
  rms(prec ) = 0.13332E-03
  weight for this iteration     100.00

 eigenvalues of (default mixing * dielectric matrix)
  average eigenvalue GAMMA=   2.1418
  7.8735  3.2337  2.5162  2.5162  1.6840  1.6840  1.7396  1.7396  1.0356  1.0356
  0.9806  0.9025  0.9025

 Free energy of the ion-electron system (eV)
  ---------------------------------------------------
  alpha Z        PSCENC =        30.28014394
  Ewald energy   TEWEN  =     14975.37070712
  -Hartree energ DENC   =    -16966.52033637
  -exchange      EXHF   =         0.00000000
  -V(xc)+E(xc)   XCENC  =        43.26583885
  PAW double counting   =      6360.79157773    -6263.76878572
  entropy T*S    EENTRO =        -0.00020906
  eigenvalues    EBANDS =      -356.01437928
  atomic energy  EATOM  =      2112.49373795
  Solvation  Ediel_sol  =         0.00000000
  ---------------------------------------------------
  free energy    TOTEN  =       -64.10170484 eV

  energy without entropy =      -64.10149579  energy(sigma->0) =      -64.10160031


--------------------------------------------------------------------------------------------------------




--------------------------------------- Iteration      1(  19)  ---------------------------------------


    POTLOK:  cpu time    0.0200: real time    0.0213
    SETDIJ:  cpu time    0.0652: real time    0.0652
     EDDAV:  cpu time    0.8026: real time    0.8038
       DOS:  cpu time    0.0008: real time    0.0008
    CHARGE:  cpu time    0.0502: real time    0.0502
    MIXING:  cpu time    0.0012: real time    0.0012
    --------------------------------------------
      LOOP:  cpu time    0.9400: real time    0.9425

 eigenvalue-minimisations  :  1304
 total energy-change (2. order) :-0.2049084E-04  (-0.4671478E-07)
 number of electron      59.9999987 magnetization 
 augmentation part       -6.4583281 magnetization 

 Broyden mixing:
  rms(total) = 0.34513E-04    rms(broyden)= 0.34513E-04
  rms(prec ) = 0.41758E-04
  weight for this iteration     100.00

 eigenvalues of (default mixing * dielectric matrix)
  average eigenvalue GAMMA=   2.1863
  8.0778  4.4365  2.8319  2.4765  2.0486  1.6212  1.6212  1.6413  1.0769  1.0769
  0.9629  0.9629  0.8868  0.8868

 Free energy of the ion-electron system (eV)
  ---------------------------------------------------
  alpha Z        PSCENC =        30.28014394
  Ewald energy   TEWEN  =     14975.37070712
  -Hartree energ DENC   =    -16966.53967125
  -exchange      EXHF   =         0.00000000
  -V(xc)+E(xc)   XCENC  =        43.26584547
  PAW double counting   =      6360.54687244    -6263.52408713
  entropy T*S    EENTRO =        -0.00020910
  eigenvalues    EBANDS =      -355.99506475
  atomic energy  EATOM  =      2112.49373795
  Solvation  Ediel_sol  =         0.00000000
  ---------------------------------------------------
  free energy    TOTEN  =       -64.10172533 eV

  energy without entropy =      -64.10151623  energy(sigma->0) =      -64.10162078


--------------------------------------------------------------------------------------------------------




--------------------------------------- Iteration      1(  20)  ---------------------------------------


    POTLOK:  cpu time    0.0200: real time    0.0214
    SETDIJ:  cpu time    0.0649: real time    0.0650
     EDDAV:  cpu time    0.7891: real time    0.7901
       DOS:  cpu time    0.0007: real time    0.0007
    --------------------------------------------
      LOOP:  cpu time    0.9580: real time    0.9605

 eigenvalue-minimisations  :  1264
 total energy-change (2. order) :-0.5480725E-05  (-0.2023131E-07)
 number of electron      59.9999987 magnetization 
 augmentation part       -6.4583281 magnetization 

 Free energy of the ion-electron system (eV)
  ---------------------------------------------------
  alpha Z        PSCENC =        30.28014394
  Ewald energy   TEWEN  =     14975.37070712
  -Hartree energ DENC   =    -16966.54403071
  -exchange      EXHF   =         0.00000000
  -V(xc)+E(xc)   XCENC  =        43.26580047
  PAW double counting   =      6360.48749094    -6263.46472835
  entropy T*S    EENTRO =        -0.00020911
  eigenvalues    EBANDS =      -355.99064305
  atomic energy  EATOM  =      2112.49373795
  Solvation  Ediel_sol  =         0.00000000
  ---------------------------------------------------
  free energy    TOTEN  =       -64.10173081 eV

  energy without entropy =      -64.10152170  energy(sigma->0) =      -64.10162626


--------------------------------------------------------------------------------------------------------




 the core state eigenenergies are
   1-  1s  -2078.3805  2s   -168.4111  2p   -118.8968
   2-  1s  -2078.3805  2s   -168.4111  2p   -118.8968
   3-  1s  -2078.5045  2s   -168.5326  2p   -119.0186
   4-  1s  -2078.5045  2s   -168.5326  2p   -119.0186
   5-  1s  -2078.5711  2s   -168.5997  2p   -119.0857
   6-  1s  -2078.5711  2s   -168.5997  2p   -119.0857
   7-  1s  -2078.5711  2s   -168.5997  2p   -119.0857
   8-  1s  -2078.5711  2s   -168.5997  2p   -119.0857
   9-  1s  -2078.5045  2s   -168.5326  2p   -119.0186
  10-  1s  -2078.5045  2s   -168.5326  2p   -119.0186
  11-  1s  -2078.3805  2s   -168.4111  2p   -118.8968
  12-  1s  -2078.3805  2s   -168.4111  2p   -118.8968
 
 E-fermi :   1.0485     XC(G=0):  -5.0892     alpha+bet : -5.5572


 k-point     1 :       0.0000    0.0000    0.0000
  band No.  band energies     occupation 
      1     -14.9490      2.00000
      2     -14.7675      2.00000
      3     -14.7103      2.00000
      4     -12.4761      2.00000
      5     -12.1658      2.00000
      6     -12.0077      2.00000
      7      -8.7194      2.00000
      8      -8.5536      2.00000
      9      -8.5103      2.00000
     10      -6.0590      2.00000
     11      -5.6241      2.00000
     12      -5.1777      2.00000
     13      -4.7891      2.00000
     14      -4.5834      2.00000
     15      -4.2702      2.00000
     16      -4.1767      2.00000
     17      -4.0375      2.00000
     18      -3.8468      2.00000
     19      -3.4875      2.00000
     20      -3.3266      2.00000
     21      -3.2898      2.00000
     22      -2.0116      2.00000
     23      -1.8270      2.00000
     24      -1.6801      2.00000
     25      -1.6222      2.00000
     26      -1.5630      2.00000
     27      -1.1211      2.00000
     28      -0.5622      2.00000
     29       0.3325      2.00000
     30       0.9018      2.00000
     31       1.0177      1.99999
     32       1.4398      0.00000
     33       1.4943      0.00000
     34       1.6364      0.00000
     35       1.6660      0.00000
     36       1.9291      0.00000
     37       2.6514      0.00000
     38       2.8600      0.00000
     39       2.8989      0.00000
     40       3.6025      0.00000

 k-point     2 :       0.1250    0.0000    0.0000
  band No.  band energies     occupation 
      1     -14.7672      2.00000
      2     -14.5859      2.00000
      3     -14.5289      2.00000
      4     -12.2876      2.00000
      5     -11.9771      2.00000
      6     -11.8188      2.00000
      7      -8.8813      2.00000
      8      -8.7156      2.00000
      9      -8.6726      2.00000
     10      -5.9048      2.00000
     11      -5.4731      2.00000
     12      -5.0687      2.00000
     13      -5.0401      2.00000
     14      -4.5889      2.00000
     15      -4.4281      2.00000
     16      -4.2467      2.00000
     17      -4.2249      2.00000
     18      -4.0811      2.00000
     19      -4.0390      2.00000
     20      -4.0253      2.00000
     21      -3.8819      2.00000
     22      -2.5575      2.00000
     23      -2.3212      2.00000
     24      -2.1996      2.00000
     25      -1.9402      2.00000
     26      -1.5836      2.00000
     27      -1.0117      2.00000
     28      -0.6607      2.00000
     29       0.2474      2.00000
     30       1.0486      0.98951
     31       1.0666      0.01050
     32       1.6319      0.00000
     33       1.7809      0.00000
     34       2.7403      0.00000
     35       2.8158      0.00000
     36       2.8698      0.00000
     37       2.8904      0.00000
     38       3.0106      0.00000
     39       3.1281      0.00000
     40       3.8317      0.00000

 k-point     3 :       0.2500    0.0000    0.0000
  band No.  band energies     occupation 
      1     -14.2269      2.00000
      2     -14.0465      2.00000
      3     -13.9904      2.00000
      4     -11.7251      2.00000
      5     -11.4140      2.00000
      6     -11.2549      2.00000
      7      -9.5733      2.00000
      8      -9.4052      2.00000
      9      -9.3607      2.00000
     10      -6.2888      2.00000
     11      -5.9150      2.00000
     12      -5.6860      2.00000
     13      -5.4640      2.00000
     14      -5.0478      2.00000
     15      -5.0106      2.00000
     16      -4.8438      2.00000
     17      -4.8040      2.00000
     18      -4.6677      2.00000
     19      -3.9891      2.00000
     20      -3.6015      2.00000
     21      -3.4381      2.00000
     22      -2.9601      2.00000
     23      -2.6443      2.00000
     24      -2.3742      2.00000
     25      -1.8865      2.00000
     26      -1.4360      2.00000
     27      -1.0675      2.00000
     28      -0.8269      2.00000
     29      -0.1977      2.00000
     30       0.5596      2.00000
     31       1.3121      0.00000
     32       1.3687      0.00000
     33       1.6353      0.00000
     34       1.6685      0.00000
     35       2.2642      0.00000
     36       2.4303      0.00000
     37       3.1402      0.00000
     38       3.4665      0.00000
     39       3.5282      0.00000
     40       3.6514      0.00000

 k-point     4 :       0.3750    0.0000    0.0000
  band No.  band energies     occupation 
      1     -13.3471      2.00000
      2     -13.1682      2.00000
      3     -13.1137      2.00000
      4     -10.8182      2.00000
      5     -10.7985      2.00000
      6     -10.6455      2.00000
      7     -10.5970      2.00000
      8     -10.4856      2.00000
      9     -10.3245      2.00000
     10      -7.9718      2.00000
     11      -7.6407      2.00000
     12      -7.4599      2.00000
     13      -4.9313      2.00000
     14      -4.8472      2.00000
     15      -4.7695      2.00000
     16      -4.7368      2.00000
     17      -4.4931      2.00000
     18      -4.2598      2.00000
     19      -3.4000      2.00000
     20      -3.0782      2.00000
     21      -2.8107      2.00000
     22      -2.8025      2.00000
     23      -2.5653      2.00000
     24      -2.1942      2.00000
     25      -2.1437      2.00000
     26      -1.7034      2.00000
     27      -1.6140      2.00000
     28      -1.0452      2.00000
     29      -0.9404      2.00000
     30      -0.2990      2.00000
     31       1.1033      0.00000
     32       1.1977      0.00000
     33       1.4396      0.00000
     34       1.6578      0.00000
     35       1.9657      0.00000
     36       2.0747      0.00000
     37       2.3366      0.00000
     38       2.4225      0.00000
     39       2.5033      0.00000
     40       2.7397      0.00000

 k-point     5 :       0.5000    0.0000    0.0000
  band No.  band energies     occupation 
      1     -12.1731      2.00000
      2     -12.1731      2.00000
      3     -11.9967      2.00000
      4     -11.9967      2.00000
      5     -11.9447      2.00000
      6     -11.9447      2.00000
      7      -9.5298      2.00000
      8      -9.5298      2.00000
      9      -9.2122      2.00000
     10      -9.2122      2.00000
     11      -9.0459      2.00000
     12      -9.0459      2.00000
     13      -4.5512      2.00000
     14      -4.5512      2.00000
     15      -4.3541      2.00000
     16      -4.3541      2.00000
     17      -4.3038      2.00000
     18      -4.3038      2.00000
     19      -2.9439      2.00000
     20      -2.9439      2.00000
     21      -2.8950      2.00000
     22      -2.8950      2.00000
     23      -2.2619      2.00000
     24      -2.2619      2.00000
     25      -2.1135      2.00000
     26      -2.1135      2.00000
     27      -1.5324      2.00000
     28      -1.5324      2.00000
     29      -1.0148      2.00000
     30      -1.0148      2.00000
     31       1.1873      0.00000
     32       1.1873      0.00000
     33       1.6073      0.00000
     34       1.6073      0.00000
     35       1.9627      0.00000
     36       1.9627      0.00000
     37       2.0063      0.00000
     38       2.0063      0.00000
     39       2.0840      0.00000
     40       2.0841      0.00000

 k-point     6 :       0.0000    0.0000    0.1429
  band No.  band energies     occupation 
      1     -14.8333      2.00000
      2     -14.6537      2.00000
      3     -14.5985      2.00000
      4     -12.5329      2.00000
      5     -12.2638      2.00000
      6     -12.1529      2.00000
      7      -8.8719      2.00000
      8      -8.7431      2.00000
      9      -8.7246      2.00000
     10      -6.2080      2.00000
     11      -6.0646      2.00000
     12      -5.9571      2.00000
     13      -4.5545      2.00000
     14      -4.5446      2.00000
     15      -4.0277      2.00000
     16      -3.8814      2.00000
     17      -3.5096      2.00000
     18      -3.4969      2.00000
     19      -3.3955      2.00000
     20      -3.2368      2.00000
     21      -3.2023      2.00000
     22      -1.8645      2.00000
     23      -1.6739      2.00000
     24      -1.6293      2.00000
     25      -1.2163      2.00000
     26      -1.1989      2.00000
     27      -1.0664      2.00000
     28      -0.7384      2.00000
     29      -0.3296      2.00000
     30       0.2574      2.00000
     31       1.5851      0.00000
     32       1.6377      0.00000
     33       1.7861      0.00000
     34       1.9104      0.00000
     35       2.0799      0.00000
     36       2.2925      0.00000
     37       2.4535      0.00000
     38       2.6445      0.00000
     39       2.6599      0.00000
     40       3.4260      0.00000

 k-point     7 :       0.1250    0.0000    0.1429
  band No.  band energies     occupation 
      1     -14.6523      2.00000
      2     -14.4730      2.00000
      3     -14.4180      2.00000
      4     -12.3480      2.00000
      5     -12.0802      2.00000
      6     -11.9710      2.00000
      7      -8.9578      2.00000
      8      -8.8299      2.00000
      9      -8.8142      2.00000
     10      -6.1649      2.00000
     11      -5.9719      2.00000
     12      -5.8970      2.00000
     13      -4.7795      2.00000
     14      -4.7147      2.00000
     15      -4.4442      2.00000
     16      -4.3364      2.00000
     17      -4.1934      2.00000
     18      -4.0284      2.00000
     19      -3.4047      2.00000
     20      -3.2177      2.00000
     21      -3.1344      2.00000
     22      -2.6672      2.00000
     23      -2.5577      2.00000
     24      -2.5463      2.00000
     25      -1.2322      2.00000
     26      -1.1993      2.00000
     27      -1.0179      2.00000
     28      -0.6911      2.00000
     29      -0.3238      2.00000
     30       0.3307      2.00000
     31       1.6725      0.00000
     32       2.0835      0.00000
     33       2.2696      0.00000
     34       2.6125      0.00000
     35       2.7410      0.00000
     36       2.7827      0.00000
     37       2.9331      0.00000
     38       3.1056      0.00000
     39       3.1663      0.00000
     40       3.8302      0.00000

 k-point     8 :       0.2500    0.0000    0.1429
  band No.  band energies     occupation 
      1     -14.1153      2.00000
      2     -13.9367      2.00000
      3     -13.8826      2.00000
      4     -11.8027      2.00000
      5     -11.5424      2.00000
      6     -11.4440      2.00000
      7      -9.4616      2.00000
      8      -9.3329      2.00000
      9      -9.3182      2.00000
     10      -6.5962      2.00000
     11      -6.2488      2.00000
     12      -6.0818      2.00000
     13      -5.4976      2.00000
     14      -5.4284      2.00000
     15      -5.2730      2.00000
     16      -5.0228      2.00000
     17      -4.6963      2.00000
     18      -4.5987      2.00000
     19      -3.3294      2.00000
     20      -3.2608      2.00000
     21      -2.9614      2.00000
     22      -2.9387      2.00000
     23      -2.8046      2.00000
     24      -2.7525      2.00000
     25      -1.6331      2.00000
     26      -1.4116      2.00000
     27      -1.2510      2.00000
     28      -0.8758      2.00000
     29      -0.4642      2.00000
     30       0.2175      2.00000
     31       1.6346      0.00000
     32       1.7249      0.00000
     33       1.9926      0.00000
     34       2.0630      0.00000
     35       2.5067      0.00000
     36       2.5662      0.00000
     37       2.7871      0.00000
     38       3.0592      0.00000
     39       3.2739      0.00000
     40       3.8512      0.00000

 k-point     9 :       0.3750    0.0000    0.1429
  band No.  band energies     occupation 
      1     -13.2443      2.00000
      2     -13.0671      2.00000
      3     -13.0144      2.00000
      4     -11.0813      2.00000
      5     -10.9470      2.00000
      6     -10.9206      2.00000
      7     -10.3529      2.00000
      8     -10.1803      2.00000
      9     -10.0991      2.00000
     10      -8.0421      2.00000
     11      -7.7323      2.00000
     12      -7.5770      2.00000
     13      -5.3806      2.00000
     14      -5.2732      2.00000
     15      -5.1860      2.00000
     16      -4.7142      2.00000
     17      -4.4357      2.00000
     18      -4.3982      2.00000
     19      -3.2934      2.00000
     20      -3.1290      2.00000
     21      -2.9830      2.00000
     22      -2.8983      2.00000
     23      -2.7011      2.00000
     24      -2.5865      2.00000
     25      -2.2130      2.00000
     26      -1.7633      2.00000
     27      -1.5169      2.00000
     28      -1.0907      2.00000
     29      -0.8233      2.00000
     30      -0.2500      2.00000
     31       1.5067      0.00000
     32       1.6626      0.00000
     33       1.9333      0.00000
     34       1.9838      0.00000
     35       2.0187      0.00000
     36       2.1862      0.00000
     37       2.3691      0.00000
     38       2.5322      0.00000
     39       2.7236      0.00000
     40       2.9589      0.00000

 k-point    10 :       0.5000    0.0000    0.1429
  band No.  band energies     occupation 
      1     -12.1011      2.00000
      2     -12.1011      2.00000
      3     -11.9262      2.00000
      4     -11.9262      2.00000
      5     -11.8757      2.00000
      6     -11.8757      2.00000
      7      -9.5374      2.00000
      8      -9.5374      2.00000
      9      -9.2411      2.00000
     10      -9.2411      2.00000
     11      -9.0992      2.00000
     12      -9.0992      2.00000
     13      -4.8169      2.00000
     14      -4.8169      2.00000
     15      -4.5784      2.00000
     16      -4.5784      2.00000
     17      -4.4747      2.00000
     18      -4.4747      2.00000
     19      -3.5047      2.00000
     20      -3.5047      2.00000
     21      -3.1037      2.00000
     22      -3.1037      2.00000
     23      -2.6557      2.00000
     24      -2.6557      2.00000
     25      -1.9822      2.00000
     26      -1.9822      2.00000
     27      -1.2858      2.00000
     28      -1.2858      2.00000
     29      -0.6161      2.00000
     30      -0.6161      2.00000
     31       1.1402      0.00000
     32       1.1402      0.00000
     33       1.5737      0.00000
     34       1.5737      0.00000
     35       1.7606      0.00000
     36       1.7606      0.00000
     37       2.8219      0.00000
     38       2.8219      0.00000
     39       3.1695      0.00000
     40       3.1713      0.00000

 k-point    11 :       0.0000    0.0000    0.2857
  band No.  band energies     occupation 
      1     -14.4950      2.00000
      2     -14.3221      2.00000
      3     -14.2743      2.00000
      4     -12.7858      2.00000
      5     -12.6091      2.00000
      6     -12.5896      2.00000
      7      -9.1302      2.00000
      8      -8.8901      2.00000
      9      -8.7504      2.00000
     10      -7.3339      2.00000
     11      -6.9428      2.00000
     12      -6.7189      2.00000
     13      -4.6449      2.00000
     14      -4.0112      2.00000
     15      -3.2711      2.00000
     16      -3.1327      2.00000
     17      -2.9815      2.00000
     18      -2.9545      2.00000
     19      -2.7990      2.00000
     20      -2.5464      2.00000
     21      -2.4568      2.00000
     22      -2.1731      2.00000
     23      -2.0130      2.00000
     24      -1.8549      2.00000
     25      -1.8419      2.00000
     26      -1.3579      2.00000
     27      -0.5918      2.00000
     28      -0.1347      2.00000
     29      -0.0613      2.00000
     30       0.0738      2.00000
     31       1.8702      0.00000
     32       1.8825      0.00000
     33       1.9873      0.00000
     34       2.1142      0.00000
     35       2.1197      0.00000
     36       2.1705      0.00000
     37       2.5126      0.00000
     38       2.9651      0.00000
     39       3.1510      0.00000
     40       3.3226      0.00000

 k-point    12 :       0.1250    0.0000    0.2857
  band No.  band energies     occupation 
      1     -14.3166      2.00000
      2     -14.1438      2.00000
      3     -14.0962      2.00000
      4     -12.6096      2.00000
      5     -12.4348      2.00000
      6     -12.4172      2.00000
      7      -9.1061      2.00000
      8      -8.8747      2.00000
      9      -8.7483      2.00000
     10      -7.2638      2.00000
     11      -6.8762      2.00000
     12      -6.6510      2.00000
     13      -4.6543      2.00000
     14      -4.5361      2.00000
     15      -4.3097      2.00000
     16      -4.2186      2.00000
     17      -3.7941      2.00000
     18      -3.4033      2.00000
     19      -3.0147      2.00000
     20      -2.9561      2.00000
     21      -2.8426      2.00000
     22      -2.3561      2.00000
     23      -2.2099      2.00000
     24      -2.0219      2.00000
     25      -1.7945      2.00000
     26      -1.2427      2.00000
     27      -0.5668      2.00000
     28      -0.4785      2.00000
     29      -0.3623      2.00000
     30      -0.3008      2.00000
     31       2.2494      0.00000
     32       2.5698      0.00000
     33       2.8649      0.00000
     34       2.9664      0.00000
     35       2.9984      0.00000
     36       3.0817      0.00000
     37       3.1966      0.00000
     38       3.3070      0.00000
     39       3.4702      0.00000
     40       3.4902      0.00000

 k-point    13 :       0.2500    0.0000    0.2857
  band No.  band energies     occupation 
      1     -13.7894      2.00000
      2     -13.6172      2.00000
      3     -13.5700      2.00000
      4     -12.1018      2.00000
      5     -11.9355      2.00000
      6     -11.9263      2.00000
      7      -9.2561      2.00000
      8      -9.0621      2.00000
      9      -8.9877      2.00000
     10      -7.3280      2.00000
     11      -6.9805      2.00000
     12      -6.7890      2.00000
     13      -5.7383      2.00000
     14      -5.6139      2.00000
     15      -5.5312      2.00000
     16      -4.8149      2.00000
     17      -4.7250      2.00000
     18      -4.6257      2.00000
     19      -3.7104      2.00000
     20      -3.3496      2.00000
     21      -3.0454      2.00000
     22      -2.4390      2.00000
     23      -2.2182      2.00000
     24      -2.1825      2.00000
     25      -1.5116      2.00000
     26      -1.4803      2.00000
     27      -1.3210      2.00000
     28      -1.0324      2.00000
     29      -0.8956      2.00000
     30      -0.2955      2.00000
     31       2.1358      0.00000
     32       2.3926      0.00000
     33       2.4723      0.00000
     34       2.5517      0.00000
     35       2.6241      0.00000
     36       2.8154      0.00000
     37       3.1799      0.00000
     38       3.2865      0.00000
     39       3.3147      0.00000
     40       4.4889      0.00000

 k-point    14 :       0.3750    0.0000    0.2857
  band No.  band energies     occupation 
      1     -12.9476      2.00000
      2     -12.7760      2.00000
      3     -12.7293      2.00000
      4     -11.4643      2.00000
      5     -11.3244      2.00000
      6     -11.3189      2.00000
      7      -9.9051      2.00000
      8      -9.7179      2.00000
      9      -9.6635      2.00000
     10      -8.2994      2.00000
[...]
     34       2.4730      0.00000
     35       2.7596      0.00000
     36       2.8500      0.00000
     37       3.5323      0.00000
     38       3.6430      0.00000
     39       3.6864      0.00000
     40       3.7313      0.00000

 k-point    15 :       0.5000    0.0000    0.2857
  band No.  band energies     occupation 
      1     -11.9182      2.00000
      2     -11.9182      2.00000
      3     -11.7475      2.00000
      4     -11.7475      2.00000
      5     -11.7016      2.00000
      6     -11.7016      2.00000
      7      -9.5855      2.00000
      8      -9.5855      2.00000
      9      -9.3435      2.00000
     10      -9.3435      2.00000
     11      -9.2603      2.00000
     12      -9.2603      2.00000
     13      -5.1880      2.00000
     14      -5.1880      2.00000
     15      -4.9029      2.00000
     16      -4.9029      2.00000
     17      -4.7327      2.00000
     18      -4.7327      2.00000
     19      -4.1413      2.00000
     20      -4.1413      2.00000
     21      -3.7703      2.00000
     22      -3.7703      2.00000
     23      -3.4140      2.00000
     24      -3.4140      2.00000
     25      -1.9800      2.00000
     26      -1.9800      2.00000
     27      -1.1791      2.00000
     28      -1.1791      2.00000
     29      -0.3665      2.00000
     30      -0.3665      2.00000
     31       2.0859      0.00000
     32       2.0859      0.00000
     33       2.4124      0.00000
     34       2.4124      0.00000
     35       2.7973      0.00000
     36       2.7973      0.00000
     37       3.0254      0.00000
     38       3.0254      0.00000
     39       3.3815      0.00000
     40       3.3815      0.00000

 k-point    16 :       0.0000    0.0000    0.4286
  band No.  band energies     occupation 
      1     -13.9662      2.00000
      2     -13.8099      2.00000
      3     -13.7788      2.00000
      4     -13.3263      2.00000
      5     -13.1772      2.00000
      6     -13.1747      2.00000
      7      -8.9594      2.00000
      8      -8.6078      2.00000
      9      -8.3587      2.00000
     10      -8.3088      2.00000
     11      -7.9047      2.00000
     12      -7.6225      2.00000
     13      -4.1449      2.00000
     14      -3.4036      2.00000
     15      -3.2455      2.00000
     16      -2.7446      2.00000
     17      -2.6110      2.00000
     18      -2.5981      2.00000
     19      -2.5570      2.00000
     20      -2.3852      2.00000
     21      -2.3255      2.00000
     22      -2.1793      2.00000
     23      -2.1788      2.00000
     24      -1.8014      2.00000
     25      -1.1653      2.00000
     26      -1.1612      2.00000
     27      -1.1042      2.00000
     28      -0.2107      2.00000
     29      -0.0862      2.00000
     30      -0.0663      2.00000
     31       1.7823      0.00000
     32       1.9470      0.00000
     33       2.0721      0.00000
     34       2.2389      0.00000
     35       2.3275      0.00000
     36       2.4268      0.00000
     37       3.1621      0.00000
     38       3.2786      0.00000
     39       3.3655      0.00000
     40       3.4471      0.00000

 k-point    17 :       0.1250    0.0000    0.4286
  band No.  band energies     occupation 
      1     -13.7917      2.00000
      2     -13.6353      2.00000
      3     -13.6041      2.00000
      4     -13.1550      2.00000
      5     -13.0058      2.00000
      6     -13.0029      2.00000
      7      -8.8824      2.00000
      8      -8.5394      2.00000
      9      -8.3045      2.00000
     10      -8.2210      2.00000
     11      -7.8250      2.00000
     12      -7.5541      2.00000
     13      -4.1329      2.00000
     14      -4.0942      2.00000
     15      -3.9212      2.00000
     16      -3.8365      2.00000
     17      -3.5757      2.00000
     18      -3.4780      2.00000
     19      -3.4070      2.00000
     20      -3.2700      2.00000
     21      -3.0488      2.00000
     22      -2.5000      2.00000
     23      -2.2766      2.00000
     24      -1.7273      2.00000
     25      -0.8569      2.00000
     26      -0.7831      2.00000
     27      -0.7563      2.00000
     28      -0.4052      2.00000
     29      -0.2924      2.00000
     30      -0.2529      2.00000
     31       2.5811      0.00000
     32       2.7817      0.00000
     33       2.8629      0.00000
     34       2.8832      0.00000
     35       2.9083      0.00000
     36       3.0267      0.00000
     37       3.0589      0.00000
     38       3.2595      0.00000
     39       3.5915      0.00000
     40       3.7335      0.00000

 k-point    18 :       0.2500    0.0000    0.4286
  band No.  band energies     occupation 
      1     -13.2810      2.00000
      2     -13.1240      2.00000
      3     -13.0922      2.00000
      4     -12.6608      2.00000
      5     -12.5109      2.00000
      6     -12.5060      2.00000
      7      -8.8341      2.00000
      8      -8.5441      2.00000
      9      -8.3866      2.00000
     10      -8.1482      2.00000
     11      -7.8084      2.00000
     12      -7.6151      2.00000
     13      -5.5750      2.00000
     14      -5.4464      2.00000
     15      -5.3805      2.00000
     16      -5.1545      2.00000
     17      -4.9980      2.00000
     18      -4.9612      2.00000
     19      -3.6286      2.00000
     20      -3.1057      2.00000
     21      -2.8990      2.00000
     22      -2.7760      2.00000
     23      -2.3669      2.00000
     24      -2.2982      2.00000
     25      -1.3920      2.00000
     26      -1.2939      2.00000
     27      -1.1900      2.00000
     28      -1.1169      2.00000
     29      -0.8706      2.00000
     30      -0.6154      2.00000
     31       2.4352      0.00000
     32       2.8092      0.00000
     33       2.9329      0.00000
     34       3.3129      0.00000
     35       3.3936      0.00000
     36       3.5149      0.00000
     37       3.6249      0.00000
     38       3.7692      0.00000
     39       3.8173      0.00000
     40       4.1807      0.00000

 k-point    19 :       0.3750    0.0000    0.4286
  band No.  band energies     occupation 
      1     -12.4955      2.00000
      2     -12.3362      2.00000
      3     -12.3018      2.00000
      4     -11.9631      2.00000
      5     -11.8085      2.00000
      6     -11.7940      2.00000
      7      -9.3538      2.00000
      8      -9.1579      2.00000
      9      -9.1098      2.00000
     10      -8.7711      2.00000
     11      -8.5516      2.00000
     12      -8.4925      2.00000
     13      -5.9272      2.00000
     14      -5.7082      2.00000
     15      -5.5308      2.00000
     16      -5.5132      2.00000
     17      -5.2533      2.00000
     18      -5.0872      2.00000
     19      -3.9282      2.00000
     20      -3.6989      2.00000
     21      -3.6445      2.00000
     22      -3.5174      2.00000
     23      -3.2636      2.00000
     24      -3.1977      2.00000
     25      -2.2200      2.00000
     26      -1.8240      2.00000
     27      -1.4841      2.00000
     28      -1.0954      2.00000
     29      -0.6668      2.00000
     30      -0.2821      2.00000
     31       2.4545      0.00000
     32       2.6433      0.00000
     33       2.7753      0.00000
     34       3.0350      0.00000
     35       3.3134      0.00000
     36       3.4115      0.00000
     37       3.6568      0.00000
     38       3.7154      0.00000
     39       3.7751      0.00000
     40       4.4395      0.00000

 k-point    20 :       0.5000    0.0000    0.4286
  band No.  band energies     occupation 
      1     -11.7411      2.00000
      2     -11.7411      2.00000
      3     -11.5754      2.00000
      4     -11.5754      2.00000
      5     -11.5349      2.00000
      6     -11.5349      2.00000
      7      -9.6701      2.00000
      8      -9.6701      2.00000
      9      -9.4754      2.00000
     10      -9.4754      2.00000
     11      -9.4391      2.00000
     12      -9.4391      2.00000
     13      -5.2200      2.00000
     14      -5.2200      2.00000
     15      -4.9060      2.00000
     16      -4.9060      2.00000
     17      -4.7781      2.00000
     18      -4.7781      2.00000
     19      -4.6283      2.00000
     20      -4.6283      2.00000
     21      -4.4340      2.00000
     22      -4.4340      2.00000
     23      -4.1299      2.00000
     24      -4.1299      2.00000
     25      -2.0082      2.00000
     26      -2.0082      2.00000
     27      -1.1279      2.00000
     28      -1.1279      2.00000
     29      -0.2591      2.00000
     30      -0.2591      2.00000
     31       2.2027      0.00000
     32       2.2027      0.00000
     33       2.7172      0.00000
     34       2.7172      0.00000
     35       2.9870      0.00000
     36       2.9870      0.00000
     37       4.3105      0.00000
     38       4.3108      0.00000
     39       4.4305      0.00000
     40       4.4704      0.00000


--------------------------------------------------------------------------------------------------------


 soft charge-density along one line, spin component           1
         0         1         2         3         4         5         6         7         8         9
 total charge-density along one line
 
 pseudopotential strength for first ion, spin component:           1
 29.683  37.028   0.035  -0.032   0.000   0.054  -0.051   0.000
 37.028  46.195   0.043  -0.040   0.000   0.067  -0.063  -0.000
  0.035   0.043   6.553   0.006  -0.000  10.134   0.009  -0.000
 -0.032  -0.040   0.006   6.557  -0.000   0.009  10.140  -0.000
  0.000   0.000  -0.000  -0.000   6.561  -0.000  -0.000  10.147
  0.054   0.067  10.134   0.009  -0.000  15.691   0.014  -0.000
 -0.051  -0.063   0.009  10.140  -0.000   0.014  15.700  -0.000
  0.000  -0.000  -0.000  -0.000  10.147  -0.000  -0.000  15.710
 total augmentation occupancy for first ion, spin component:           1
  8.306  -4.742   1.848  -1.941   0.000  -0.602   0.648   0.000
 -4.742   3.450  -1.583   1.648   0.000   0.446  -0.475   0.000
  1.848  -1.583   3.132   0.201   0.000  -0.826  -0.162   0.000
 -1.941   1.648   0.201   3.278   0.000  -0.161  -0.927   0.000
  0.000   0.000   0.000   0.000   3.403   0.000   0.000  -1.029
 -0.602   0.446  -0.826  -0.161   0.000   0.262   0.070   0.000
  0.648  -0.475  -0.162  -0.927  -0.000   0.070   0.300   0.000
  0.000   0.000   0.000  -0.000  -1.029   0.000   0.000   0.341


------------------------ aborting loop because EDIFF is reached ----------------------------------------


 


 total charge     
 
# of ion       s       p       d       tot
------------------------------------------
    1        1.083   1.375   0.000   2.458
    2        1.083   1.375   0.000   2.458
    3        1.087   1.370   0.000   2.456
    4        1.087   1.370   0.000   2.456
    5        1.088   1.369   0.000   2.456
    6        1.088   1.369   0.000   2.456
    7        1.088   1.369   0.000   2.456
    8        1.088   1.369   0.000   2.456
    9        1.087   1.370   0.000   2.456
   10        1.087   1.370   0.000   2.456
   11        1.083   1.375   0.000   2.458
   12        1.083   1.375   0.000   2.458
--------------------------------------------------
tot         13.030  16.452   0.000  29.482
 
    CHARGE:  cpu time    0.0517: real time    0.0519
    FORLOC:  cpu time    0.0015: real time    0.0015
    FORNL :  cpu time    0.2069: real time    0.2069
    STRESS:  cpu time    0.3337: real time    0.3337
    FORCOR:  cpu time    0.0198: real time    0.0198
    FORHAR:  cpu time    0.0056: real time    0.0057
    MIXING:  cpu time    0.0011: real time    0.0011
    OFIELD:  cpu time    0.0000: real time    0.0000

  DFT-D2 method for vdW energy calculation
  -------------------------------------------------------------------

  Parameters of vdW forcefield:
         C6(Jnm^6/mol)     R0(A)
   -----------------------------
   P        7.840          1.705

  IVDW =  10
  VDW_RADIUS =    50.000 A
  VDW_S6 =     0.750
  VDW_SR =     1.000
  VDW_D =    20.000
  LVDW_EWALD = F

  Number of pair interactions contributing to vdW energy:   88298
  Edisp (eV):   -2.09049
    FORVDW:  cpu time    0.0518: real time    0.0522

  FORCE on cell =-STRESS in cart. coord.  units (eV):
  Direction    XX          YY          ZZ          XY          YZ          ZX
  --------------------------------------------------------------------------------------
  Alpha Z    30.28014    30.28014    30.28014
  Ewald   16581.80831-18028.74426 16422.30473    -0.00000     0.00000     0.00000
  Hartree 16891.56420-16761.49801 16836.49467    -0.00000    -0.00000    -0.00000
  E(xc)    -201.70604  -202.62356  -201.83614    -0.00000    -0.00000    -0.00000
  Local  -34426.47108 33797.82240-34232.79445    -0.00000    -0.00000    -0.00000
  n-local   681.42449   676.78481   676.23804     0.00000     0.00000     1.94349
  augment  -126.64763  -130.62511  -129.16041     0.00000     0.00000     0.00000
  Kinetic   568.43648   624.75057   599.39573    -0.00000     0.00000     8.49539
  Fock        0.00000     0.00000     0.00000     0.00000     0.00000     0.00000
  vdW        -0.40633    -1.21184    -1.04267    -0.00000    -0.00000     0.00000
  -------------------------------------------------------------------------------------
  Total      -1.71747     4.93515    -0.12035     0.00000     0.00000     0.00000
  in kB      -5.77122    16.58360    -0.40442     0.00000     0.00000     0.00000
  external pressure =        3.47 kB  Pullay stress =        0.00 kB


 VOLUME and BASIS-vectors are now :
 -----------------------------------------------------------------------------
  energy-cutoff  :      450.00
  volume of cell :      476.80
      direct lattice vectors                 reciprocal lattice vectors
     3.342886000  0.000000000  0.000000000     0.299142717  0.000000000  0.000000000
     0.000000000 32.602409000  0.000000000     0.000000000  0.030672580  0.000000000
     0.000000000  0.000000000  4.374831000     0.000000000  0.000000000  0.228580258

  length of vectors
     3.342886000 32.602409000  4.374831000     0.299142717  0.030672580  0.228580258


 FORCES acting on ions
    electron-ion (+dipol)            ewald-force                    non-local-force                 convergence-correction
 -----------------------------------------------------------------------------------------------
   0.186E-14 0.823E+03 -.291E+02   0.142E-14 -.828E+03 0.342E+02   0.000E+00 0.547E+01 -.521E+01   -.190E-15 -.520E-04 -.267E-04
   -.136E-13 0.823E+03 0.291E+02   -.514E-14 -.828E+03 -.342E+02   0.000E+00 0.547E+01 0.521E+01   0.433E-15 -.520E-04 0.267E-04
   0.254E-14 0.460E+03 0.252E+02   0.287E-14 -.455E+03 -.308E+02   0.000E+00 -.511E+01 0.552E+01   -.235E-15 0.635E-04 -.193E-04
   -.141E-13 0.460E+03 -.252E+02   -.708E-14 -.455E+03 0.308E+02   -.278E-16 -.511E+01 -.552E+01   0.512E-15 0.635E-04 0.193E-04
   0.559E-16 0.183E+03 -.254E+02   0.791E-15 -.187E+03 0.310E+02   0.278E-16 0.482E+01 -.553E+01   0.212E-14 -.180E-03 -.637E-04
   -.127E-13 0.183E+03 0.254E+02   -.517E-14 -.187E+03 -.310E+02   -.555E-16 0.482E+01 0.553E+01   -.111E-14 -.180E-03 0.637E-04
   0.621E-15 -.183E+03 0.254E+02   0.193E-14 0.187E+03 -.310E+02   -.278E-16 -.482E+01 0.553E+01   0.141E-14 0.180E-03 0.637E-04
   -.129E-13 -.183E+03 -.254E+02   -.620E-14 0.187E+03 0.310E+02   0.555E-16 -.482E+01 -.553E+01   -.126E-14 0.180E-03 -.637E-04
   0.141E-15 -.460E+03 -.252E+02   -.148E-15 0.455E+03 0.308E+02   0.000E+00 0.511E+01 -.552E+01   -.136E-15 -.635E-04 0.193E-04
   -.153E-13 -.460E+03 0.252E+02   -.428E-14 0.455E+03 -.308E+02   0.278E-16 0.511E+01 0.552E+01   0.844E-15 -.635E-04 -.193E-04
   0.478E-15 -.823E+03 0.291E+02   0.131E-14 0.828E+03 -.342E+02   0.000E+00 -.547E+01 0.521E+01   0.115E-15 0.520E-04 0.267E-04
   -.136E-13 -.823E+03 -.291E+02   -.623E-14 0.828E+03 0.342E+02   0.000E+00 -.547E+01 -.521E+01   0.628E-16 0.520E-04 -.267E-04
 -----------------------------------------------------------------------------------------------
   -.765E-13 0.436E-11 0.429E-10   -.259E-13 0.682E-12 0.000E+00   0.000E+00 -.888E-15 0.000E+00   0.257E-14 -.369E-11 -.180E-13
 
 
 POSITION                                       TOTAL-FORCE (eV/Angst)
 -----------------------------------------------------------------------------------
      0.00000     10.00001      4.02014         0.000000     -0.122694     -0.148457
      1.67144     10.00001      2.54211         0.000000     -0.122694      0.148457
      0.00000     12.14332      0.35469         0.000000     -0.092048     -0.094149
      1.67144     12.14332      1.83272         0.000000     -0.092048      0.094149
      0.00000     15.22953      4.02014         0.000000     -0.083444      0.005727
      1.67144     15.22953      2.54211         0.000000     -0.083444     -0.005727
      0.00000     17.37288      0.35469         0.000000      0.083444     -0.005727
      1.67144     17.37288      1.83272         0.000000      0.083444      0.005727
      0.00000     20.45909      4.02014         0.000000      0.092048      0.094149
      1.67144     20.45909      2.54211        -0.000000      0.092048     -0.094149
      0.00000     22.60240      0.35469         0.000000      0.122694      0.148457
      1.67144     22.60240      1.83272         0.000000      0.122694     -0.148457
 -----------------------------------------------------------------------------------
    total drift:                               -0.000000      0.000000      0.000000


--------------------------------------------------------------------------------------------------------



  FREE ENERGIE OF THE ION-ELECTRON SYSTEM (eV)
  ---------------------------------------------------
  free  energy   TOTEN  =       -66.19221999 eV

  energy  without entropy=      -66.19201087  energy(sigma->0) =      -66.19211543
 


--------------------------------------------------------------------------------------------------------


    POTLOK:  cpu time    0.1182: real time    0.1182


--------------------------------------------------------------------------------------------------------


 writing wavefunctions
     LOOP+:  cpu time   24.6056: real time   24.7078
    4ORBIT:  cpu time    0.0000: real time    0.0000
 


 total charge     
 
# of ion       s       p       d       tot
------------------------------------------
    1        1.083   1.375   0.000   2.458
    2        1.083   1.375   0.000   2.458
    3        1.087   1.370   0.000   2.456
    4        1.087   1.370   0.000   2.456
    5        1.088   1.369   0.000   2.456
    6        1.088   1.369   0.000   2.456
    7        1.088   1.369   0.000   2.456
    8        1.088   1.369   0.000   2.456
    9        1.087   1.370   0.000   2.456
   10        1.087   1.370   0.000   2.456
   11        1.083   1.375   0.000   2.458
   12        1.083   1.375   0.000   2.458
--------------------------------------------------
tot         13.030  16.452   0.000  29.482
 

 total amount of memory used by VASP MPI-rank0    39791. kBytes
=======================================================================

   base      :      30000. kBytes
   nonl-proj :       1901. kBytes
   fftplans  :       1467. kBytes
   grid      :       2232. kBytes
   one-center:          6. kBytes
   wavefun   :       4185. kBytes
 
  
  
 General timing and accounting informations for this job:
 ========================================================
  
                  Total CPU time used (sec):       31.444
                            User time (sec):       28.256
                          System time (sec):        3.188
                         Elapsed time (sec):       32.234
  
                   Maximum memory used (kb):      111936.
                   Average memory used (kb):           0.
  
                          Minor page faults:        43989
                          Major page faults:            0
                 Voluntary context switches:         2954
