<?xml version="1.0" encoding="ISO-8859-1"?>
<modeling>
 <generator>
  <i name="program" type="string">vasp </i>
  <i name="version" type="string">5.4.4.18Apr17-6-g9f103f2a35  </i>
  <i name="subversion" type="string">(build Jun 20 2017 18:00:50) complex            parallel </i>
  <i name="platform" type="string">LinuxIFC </i>
  <i name="date" type="string">2018 03 22 </i>
  <i name="time" type="string">15:18:03 </i>
 </generator>
 <incar>
  <i type="string" name="SYSTEM"> Generic Input</i>
  <i type="int" name="ISTART">     1</i>
  <i type="string" name="PREC">normal    ! precision level</i>
  <i type="int" name="IALGO">    53</i>
  <i type="string" name="ALGO"> Normal    ! SCF minimisation algorithm</i>
  <i type="int" name="INIWAV">     1</i>
  <i type="int" name="NELM">   200</i>
  <i type="int" name="NELMIN">     2</i>
  <i type="int" name="IBRION">     2</i>
  <i name="EDIFF">      0.00001000</i>
  <i name="EDIFFG">     -0.02000000</i>
  <i type="int" name="NSW">     0</i>
  <i type="int" name="ISIF">     3</i>
  <i type="int" name="IWAVPR">    11</i>
  <i type="int" name="NBLOCK">     1</i>
  <i type="int" name="KBLOCK">    40</i>
  <i name="ENCUT">    450.00000000</i>
  <i type="int" name="NEDOS">  2000</i>
  <i type="int" name="ISMEAR">     0</i>
  <i name="SIGMA">      0.01000000</i>
  <i type="int" name="NWRITE">     2</i>
  <i type="logical" name="LVHAR"> T  </i>
  <i type="int" name="LORBIT">    11</i>
  <i type="logical" name="LASPH"> T  </i>
  <i type="int" name="ICORELEVEL">     1</i>
  <v type="int" name="KPOINT_BSE">    -1     0     0     0</v>
  <i type="int" name="NELM">   200</i>
  <i type="string" name="GGA"> PE        ! PBEsol exchange-correlation</i>
  <i type="logical" name="LASPH"> T  </i>
 </incar>
 <structure name="primitive_cell" >
  <crystal>
   <varray name="basis" >
    <v>       3.34288600       0.00000000       0.00000000 </v>
    <v>       0.00000000      32.60240900       0.00000000 </v>
    <v>       0.00000000       0.00000000       4.37483100 </v>
   </varray>
   <i name="volume">    476.79592902 </i>
   <varray name="rec_basis" >
    <v>       0.29914272       0.00000000       0.00000000 </v>
    <v>       0.00000000       0.03067258       0.00000000 </v>
    <v>       0.00000000       0.00000000       0.22858026 </v>
   </varray>
  </crystal>
  <varray name="positions" >
   <v>       0.00000000       0.30672600      -0.08107600 </v>
   <v>      -0.50000000       0.30672600      -0.41892400 </v>
   <v>       0.00000000       0.37246700       0.08107600 </v>
   <v>      -0.50000000       0.37246700       0.41892400 </v>
   <v>       0.00000000       0.46712900      -0.08107600 </v>
   <v>      -0.50000000       0.46712900      -0.41892400 </v>
   <v>       0.00000000      -0.46712900       0.08107600 </v>
   <v>      -0.50000000      -0.46712900       0.41892400 </v>
   <v>       0.00000000      -0.37246700      -0.08107600 </v>
   <v>      -0.50000000      -0.37246700      -0.41892400 </v>
   <v>       0.00000000      -0.30672600       0.08107600 </v>
   <v>      -0.50000000      -0.30672600       0.41892400 </v>
  </varray>
 </structure>
 <varray name="primitive_index" >
  <v type="int" >        1 </v>
  <v type="int" >        2 </v>
  <v type="int" >        3 </v>
  <v type="int" >        4 </v>
  <v type="int" >        5 </v>
  <v type="int" >        6 </v>
  <v type="int" >        7 </v>
  <v type="int" >        8 </v>
  <v type="int" >        9 </v>
  <v type="int" >       10 </v>
  <v type="int" >       11 </v>
  <v type="int" >       12 </v>
 </varray>
 <kpoints>
  <generation param="Gamma">
   <v type="int" name="divisions">       8        1        7 </v>
   <v name="usershift">      0.00000000       0.00000000       0.00000000 </v>
   <v name="genvec1">      0.12500000       0.00000000       0.00000000 </v>
   <v name="genvec2">      0.00000000       1.00000000       0.00000000 </v>
   <v name="genvec3">      0.00000000       0.00000000       0.14285714 </v>
   <v name="shift">      0.00000000       0.00000000       0.00000000 </v>
  </generation>
  <varray name="kpointlist" >
   <v>       0.00000000       0.00000000       0.00000000 </v>
   <v>       0.12500000       0.00000000       0.00000000 </v>
   <v>       0.25000000       0.00000000       0.00000000 </v>
   <v>       0.37500000       0.00000000       0.00000000 </v>
   <v>       0.50000000       0.00000000       0.00000000 </v>
   <v>       0.00000000       0.00000000       0.14285714 </v>
   <v>       0.12500000       0.00000000       0.14285714 </v>
   <v>       0.25000000       0.00000000       0.14285714 </v>
   <v>       0.37500000       0.00000000       0.14285714 </v>
   <v>       0.50000000       0.00000000       0.14285714 </v>
   <v>       0.00000000       0.00000000       0.28571429 </v>
   <v>       0.12500000       0.00000000       0.28571429 </v>
   <v>       0.25000000       0.00000000       0.28571429 </v>
   <v>       0.37500000       0.00000000       0.28571429 </v>
   <v>       0.50000000       0.00000000       0.28571429 </v>
   <v>       0.00000000       0.00000000       0.42857143 </v>
   <v>       0.12500000       0.00000000       0.42857143 </v>
   <v>       0.25000000       0.00000000       0.42857143 </v>
   <v>       0.37500000       0.00000000       0.42857143 </v>
   <v>       0.50000000       0.00000000       0.42857143 </v>
  </varray>
  <varray name="weights" >
   <v>       0.01785714 </v>
   <v>       0.03571429 </v>
   <v>       0.03571429 </v>
   <v>       0.03571429 </v>
   <v>       0.01785714 </v>
   <v>       0.03571429 </v>
   <v>       0.07142857 </v>
   <v>       0.07142857 </v>
   <v>       0.07142857 </v>
   <v>       0.03571429 </v>
   <v>       0.03571429 </v>
   <v>       0.07142857 </v>
   <v>       0.07142857 </v>
   <v>       0.07142857 </v>
   <v>       0.03571429 </v>
   <v>       0.03571429 </v>
   <v>       0.07142857 </v>
   <v>       0.07142857 </v>
   <v>       0.07142857 </v>
   <v>       0.03571429 </v>
  </varray>
 </kpoints>
 <parameters>
  <separator name="general" >
   <i type="string" name="SYSTEM">Generic Input</i>
   <i type="logical" name="LCOMPAT"> F  </i>
  </separator>
  <separator name="electronic" >
   <i type="string" name="PREC">normal</i>
   <i name="ENMAX">    450.00000000</i>
   <i name="ENAUG">    342.92400000</i>
   <i name="EDIFF">      0.00001000</i>
   <i type="int" name="IALGO">    38</i>
   <i type="int" name="IWAVPR">    11</i>
   <i type="int" name="NBANDS">    40</i>
   <i name="NELECT">     60.00000000</i>
   <i type="int" name="TURBO">     0</i>
   <i type="int" name="IRESTART">     0</i>
   <i type="int" name="NREBOOT">     0</i>
   <i type="int" name="NMIN">     0</i>
   <i name="EREF">      0.00000000</i>
   <separator name="electronic smearing" >
    <i type="int" name="ISMEAR">     0</i>
    <i name="SIGMA">      0.01000000</i>
    <i name="KSPACING">      0.50000000</i>
    <i type="logical" name="KGAMMA"> T  </i>
   </separator>
   <separator name="electronic projectors" >
    <i type="logical" name="LREAL"> F  </i>
    <v name="ROPT">      0.00000000</v>
    <i type="int" name="LMAXPAW">  -100</i>
    <i type="int" name="LMAXMIX">     2</i>
    <i type="logical" name="NLSPLINE"> F  </i>
   </separator>
   <separator name="electronic startup" >
    <i type="int" name="ISTART">     0</i>
    <i type="int" name="ICHARG">     2</i>
    <i type="int" name="INIWAV">     1</i>
   </separator>
   <separator name="electronic spin" >
    <i type="int" name="ISPIN">     1</i>
    <i type="logical" name="LNONCOLLINEAR"> F  </i>
    <v name="MAGMOM">      1.00000000      1.00000000      1.00000000      1.00000000      1.00000000      1.00000000      1.00000000      1.00000000      1.00000000      1.00000000      1.00000000      1.00000000</v>
    <i name="NUPDOWN">     -1.00000000</i>
    <i type="logical" name="LSORBIT"> F  </i>
    <v name="SAXIS">      0.00000000      0.00000000      1.00000000</v>
    <i type="logical" name="LSPIRAL"> F  </i>
    <v name="QSPIRAL">      0.00000000      0.00000000      0.00000000</v>
    <i type="logical" name="LZEROZ"> F  </i>
   </separator>
   <separator name="electronic exchange-correlation" >
    <i type="logical" name="LASPH"> T  </i>
    <i type="logical" name="LMETAGGA"> F  </i>
   </separator>
   <separator name="electronic convergence" >
    <i type="int" name="NELM">   200</i>
    <i type="int" name="NELMDL">     0</i>
    <i type="int" name="NELMIN">     2</i>
    <i name="ENINI">    450.00000000</i>
    <separator name="electronic convergence detail" >
     <i type="logical" name="LDIAG"> T  </i>
     <i type="logical" name="LSUBROT"> F  </i>
     <i name="WEIMIN">      0.00000000</i>
     <i name="EBREAK">      0.00000006</i>
     <i name="DEPER">      0.30000000</i>
     <i type="int" name="NRMM">     4</i>
     <i name="TIME">      0.40000000</i>
    </separator>
   </separator>
   <separator name="electronic mixer" >
    <i name="AMIX">      0.40000000</i>
    <i name="BMIX">      1.00000000</i>
    <i name="AMIN">      0.10000000</i>
    <i name="AMIX_MAG">      1.60000000</i>
    <i name="BMIX_MAG">      1.00000000</i>
    <separator name="electronic mixer details" >
     <i type="int" name="IMIX">     4</i>
     <i type="logical" name="MIXFIRST"> F  </i>
     <i type="int" name="MAXMIX">   -45</i>
     <i name="WC">    100.00000000</i>
     <i type="int" name="INIMIX">     1</i>
     <i type="int" name="MIXPRE">     1</i>
     <i type="int" name="MREMOVE">     5</i>
    </separator>
   </separator>
   <separator name="electronic dipolcorrection" >
    <i type="logical" name="LDIPOL"> F  </i>
    <i type="logical" name="LMONO"> F  </i>
    <i type="int" name="IDIPOL">     0</i>
    <i name="EPSILON">      1.00000000</i>
    <v name="DIPOL">   -100.00000000   -100.00000000   -100.00000000</v>
    <i name="EFIELD">      0.00000000</i>
   </separator>
  </separator>
  <separator name="grids" >
   <i type="int" name="NGX">    18</i>
   <i type="int" name="NGY">   180</i>
   <i type="int" name="NGZ">    24</i>
   <i type="int" name="NGXF">    36</i>
   <i type="int" name="NGYF">   360</i>
   <i type="int" name="NGZF">    48</i>
   <i type="logical" name="ADDGRID"> F  </i>
  </separator>
  <separator name="ionic" >
   <i type="int" name="NSW">     0</i>
   <i type="int" name="IBRION">    -1</i>
   <i type="int" name="MDALGO">     0</i>
   <i type="int" name="ISIF">     3</i>
   <i name="PSTRESS">      0.00000000</i>
   <i name="EDIFFG">     -0.02000000</i>
   <i type="int" name="NFREE">     1</i>
   <i name="POTIM">      0.50000000</i>
   <i name="SMASS">     -3.00000000</i>
   <i name="SCALEE">      1.00000000</i>
  </separator>
  <separator name="ionic md" >
   <i name="TEBEG">      0.00010000</i>
   <i name="TEEND">      0.00010000</i>
   <i type="int" name="NBLOCK">     1</i>
   <i type="int" name="KBLOCK">     1</i>
   <i type="int" name="NPACO">   256</i>
   <i name="APACO">     16.00000000</i>
  </separator>
  <separator name="symmetry" >
   <i type="int" name="ISYM">     2</i>
   <i name="SYMPREC">      0.00001000</i>
  </separator>
  <separator name="dos" >
   <i type="int" name="LORBIT">    11</i>
   <v name="RWIGS">     -1.00000000</v>
   <i type="int" name="NEDOS">  2000</i>
   <i name="EMIN">     10.00000000</i>
   <i name="EMAX">    -10.00000000</i>
   <i name="EFERMI">      0.00000000</i>
  </separator>
  <separator name="writing" >
   <i type="int" name="NWRITE">     2</i>
   <i type="logical" name="LWAVE"> T  </i>
   <i type="logical" name="LDOWNSAMPLE"> F  </i>
   <i type="logical" name="LCHARG"> T  </i>
   <i type="logical" name="LPARD"> F  </i>
   <i type="logical" name="LVTOT"> F  </i>
   <i type="logical" name="LVHAR"> T  </i>
   <i type="logical" name="LELF"> F  </i>
   <i type="logical" name="LOPTICS"> F  </i>
   <v name="STM">      0.00000000      0.00000000      0.00000000      0.00000000      0.00000000      0.00000000      0.00000000</v>
  </separator>
  <separator name="performance" >
   <i type="int" name="NPAR">     4</i>
   <i type="int" name="NSIM">     4</i>
   <i type="int" name="NBLK">    -1</i>
   <i type="logical" name="LPLANE"> T  </i>
   <i type="logical" name="LSCALAPACK"> T  </i>
   <i type="logical" name="LSCAAWARE"> F  </i>
   <i type="logical" name="LSCALU"> F  </i>
   <i type="logical" name="LASYNC"> F  </i>
   <i type="logical" name="LORBITALREAL"> F  </i>
  </separator>
  <separator name="miscellaneous" >
   <i type="int" name="IDIOT">     3</i>
   <i type="int" name="ISPECIAL">     0</i>
   <i type="logical" name="LMUSIC"> F  </i>
   <v name="POMASS">     30.97400000</v>
   <v name="DARWINR">      0.00000000</v>
   <v name="DARWINV">      1.00000000</v>
   <i type="logical" name="LCORR"> T  </i>
  </separator>
  <i type="logical" name="GGA_COMPAT"> T  </i>
  <i type="logical" name="LBERRY"> F  </i>
  <i type="int" name="ICORELEVEL">     1</i>
  <i type="int" name="CLNT">     1</i>
  <i type="int" name="CLN">     1</i>
  <i type="int" name="CLL">     0</i>
  <i name="CLZ">      0.00000000</i>
  <i type="logical" name="LDAU"> F  </i>
  <i type="int" name="I_CONSTRAINED_M">     0</i>
  <separator name="electronic exchange-correlation" >
   <i type="string" name="GGA">PE</i>
   <i type="int" name="VOSKOWN">     0</i>
   <i type="logical" name="LHFCALC"> F  </i>
   <i type="string" name="PRECFOCK"></i>
   <i type="logical" name="LSYMGRAD"> F  </i>
   <i type="logical" name="LHFONE"> F  </i>
   <i type="logical" name="LRHFCALC"> F  </i>
   <i type="logical" name="LTHOMAS"> F  </i>
   <i type="logical" name="LMODELHF"> F  </i>
   <i name="ENCUT4O">     -1.00000000</i>
   <i type="int" name="EXXOEP">     0</i>
   <i type="int" name="FOURORBIT">     0</i>
   <i name="AEXX">      0.00000000</i>
   <i name="HFALPHA">      0.00000000</i>
   <i name="MCALPHA">      0.00000000</i>
   <i name="ALDAX">      1.00000000</i>
   <i name="AGGAX">      1.00000000</i>
   <i name="ALDAC">      1.00000000</i>
   <i name="AGGAC">      1.00000000</i>
   <i type="int" name="NKREDX">     1</i>
   <i type="int" name="NKREDY">     1</i>
   <i type="int" name="NKREDZ">     1</i>
   <i type="logical" name="SHIFTRED"> F  </i>
   <i type="logical" name="ODDONLY"> F  </i>
   <i type="logical" name="EVENONLY"> F  </i>
   <i type="int" name="LMAXFOCK">     0</i>
   <i type="int" name="NMAXFOCKAE">     0</i>
   <i type="logical" name="LFOCKAEDFT"> F  </i>
   <i name="HFSCREEN">      0.00000000</i>
   <i name="HFSCREENC">      0.00000000</i>
   <i type="int" name="NBANDSGWLOW">     0</i>
  </separator>
  <separator name="vdW DFT" >
   <i type="logical" name="LUSE_VDW"> F  </i>
   <i name="Zab_VDW">     -0.84910000</i>
   <i name="PARAM1">      0.12340000</i>
   <i name="PARAM2">      1.00000000</i>
   <i name="PARAM3">      0.00000000</i>
  </separator>
  <separator name="model GW" >
   <i type="int" name="MODEL_GW">     0</i>
   <i name="MODEL_EPS0">     23.83979645</i>
   <i name="MODEL_ALPHA">      1.00000000</i>
  </separator>
  <separator name="linear response parameters" >
   <i type="logical" name="LEPSILON"> F  </i>
   <i type="logical" name="LRPA"> F  </i>
   <i type="logical" name="LNABLA"> F  </i>
   <i type="logical" name="LVEL"> F  </i>
   <i type="int" name="KINTER">     0</i>
   <i name="CSHIFT">      0.10000000</i>
   <i name="OMEGAMAX">     -1.00000000</i>
   <i name="DEG_THRESHOLD">      0.00200000</i>
   <i name="RTIME">     -0.10000000</i>
   <i name="WPLASMAI">      0.00000000</i>
   <v name="DFIELD">      0.00000000      0.00000000      0.00000000</v>
   <v name="WPLASMA">      0.00000000      0.00000000      0.00000000      0.00000000      0.00000000      0.00000000      0.00000000      0.00000000      0.00000000</v>
  </separator>
  <separator name="orbital magnetization" >
   <i type="logical" name="NUCIND"> F  </i>
   <v name="MAGPOS">      0.00000000      0.00000000      0.00000000</v>
   <i type="logical" name="LNICSALL"> T  </i>
   <i type="logical" name="ORBITALMAG"> F  </i>
   <i type="logical" name="LMAGBLOCH"> F  </i>
   <i type="logical" name="LCHIMAG"> F  </i>
   <i type="logical" name="LGAUGE"> T  </i>
   <i type="int" name="MAGATOM">     0</i>
   <v name="MAGDIPOL">      0.00000000      0.00000000      0.00000000</v>
   <v name="AVECCONST">      0.00000000      0.00000000      0.00000000</v>
  </separator>
  <separator name="response functions" >
   <i type="logical" name="LADDER"> F  </i>
   <i type="logical" name="LRPAFORCE"> F  </i>
   <i type="logical" name="LFXC"> F  </i>
   <i type="logical" name="LHARTREE"> T  </i>
   <i type="int" name="IBSE">     0</i>
   <v type="int" name="KPOINT">    -1     0     0     0</v>
   <i type="logical" name="LTCTE"> F  </i>
   <i type="logical" name="LTETE"> F  </i>
   <i type="logical" name="LTRIPLET"> F  </i>
   <i type="logical" name="LFXCEPS"> F  </i>
   <i type="logical" name="LFXHEG"> F  </i>
   <i type="int" name="NATURALO">     2</i>
   <i type="logical" name="L2ORDER"> F  </i>
   <i type="logical" name="LMP2LT"> F  </i>
   <i type="logical" name="LUSEW"> F  </i>
   <i name="ENCUTGW">     -2.00000000</i>
   <i name="ENCUTGWSOFT">     -2.00000000</i>
   <i name="ENCUTLF">     -1.00000000</i>
   <i type="int" name="LMAXMP2">    -1</i>
   <i name="SCISSOR">      0.00000000</i>
   <i type="int" name="NOMEGA">     0</i>
   <i type="int" name="NOMEGAR">     0</i>
   <i type="int" name="NBANDSGW">    -1</i>
   <i type="int" name="NBANDSO">    -1</i>
   <i type="int" name="NBANDSV">    -1</i>
   <i type="int" name="NELM">   200</i>
   <i type="int" name="NELMHF">     1</i>
   <i type="int" name="DIM">     3</i>
   <i type="int" name="ANTIRES">     0</i>
   <i name="OMEGAMAX">    -30.00000000</i>
   <i name="OMEGAMIN">    -30.00000000</i>
   <i name="OMEGATL">   -200.00000000</i>
   <i type="int" name="OMEGAGRID">   140</i>
   <i name="CSHIFT">     -0.10000000</i>
   <i type="logical" name="SELFENERGY"> F  </i>
   <i type="logical" name="LSPECTRAL"> F  </i>
   <i type="logical" name="LSPECTRALGW"> F  </i>
   <i type="logical" name="LSINGLES"> F  </i>
   <i type="logical" name="LFERMIGW"> F  </i>
   <i type="logical" name="ODDONLYGW"> F  </i>
   <i type="logical" name="EVENONLYGW"> F  </i>
   <i type="int" name="NKREDLFX">     1</i>
   <i type="int" name="NKREDLFY">     1</i>
   <i type="int" name="NKREDLFZ">     1</i>
   <i type="int" name="MAXMEM">  2800</i>
   <i type="int" name="TELESCOPE">     0</i>
   <i type="int" name="TAUPAR">     1</i>
   <i type="int" name="OMEGAPAR">    -1</i>
   <i name="LAMBDA">      1.00000000</i>
  </separator>
  <separator name="External order field" >
   <i name="OFIELD_KAPPA">      0.00000000</i>
   <v name="OFIELD_K">      0.00000000      0.00000000      0.00000000</v>
   <i name="OFIELD_Q6_NEAR">      0.00000000</i>
   <i name="OFIELD_Q6_FAR">      0.00000000</i>
   <i name="OFIELD_A">      0.00000000</i>
  </separator>
 </parameters>
 <atominfo>
  <atoms>      12 </atoms>
  <types>       1 </types>
  <array name="atoms" >
   <dimension dim="1">ion</dimension>
   <field type="string">element</field>
   <field type="int">atomtype</field>
   <set>
    <rc><c>P </c><c>   1</c></rc>
    <rc><c>P </c><c>   1</c></rc>
    <rc><c>P </c><c>   1</c></rc>
    <rc><c>P </c><c>   1</c></rc>
    <rc><c>P </c><c>   1</c></rc>
    <rc><c>P </c><c>   1</c></rc>
    <rc><c>P </c><c>   1</c></rc>
    <rc><c>P </c><c>   1</c></rc>
    <rc><c>P </c><c>   1</c></rc>
    <rc><c>P </c><c>   1</c></rc>
    <rc><c>P </c><c>   1</c></rc>
    <rc><c>P </c><c>   1</c></rc>
   </set>
  </array>
  <array name="atomtypes" >
   <dimension dim="1">type</dimension>
   <field type="int">atomspertype</field>
   <field type="string">element</field>
   <field>mass</field>
   <field>valence</field>
   <field type="string">pseudopotential</field>
   <set>
    <rc><c>  12</c><c>P </c><c>     30.97400000</c><c>      5.00000000</c><c>  PAW_PBE P 06Sep2000                   </c></rc>
   </set>
  </array>
 </atominfo>
 <structure name="initialpos" >
  <crystal>
   <varray name="basis" >
    <v>       3.34288600       0.00000000       0.00000000 </v>
    <v>       0.00000000      32.60240900       0.00000000 </v>
    <v>       0.00000000       0.00000000       4.37483100 </v>
   </varray>
   <i name="volume">    476.79592902 </i>
   <varray name="rec_basis" >
    <v>       0.29914272       0.00000000       0.00000000 </v>
    <v>       0.00000000       0.03067258       0.00000000 </v>
    <v>       0.00000000       0.00000000       0.22858026 </v>
   </varray>
  </crystal>
  <varray name="positions" >
   <v>       0.00000000       0.30672600       0.91892400 </v>
   <v>       0.50000000       0.30672600       0.58107600 </v>
   <v>       0.00000000       0.37246700       0.08107600 </v>
   <v>       0.50000000       0.37246700       0.41892400 </v>
   <v>       0.00000000       0.46712900       0.91892400 </v>
   <v>       0.50000000       0.46712900       0.58107600 </v>
   <v>       0.00000000       0.53287100       0.08107600 </v>
   <v>       0.50000000       0.53287100       0.41892400 </v>
   <v>       0.00000000       0.62753300       0.91892400 </v>
   <v>       0.50000000       0.62753300       0.58107600 </v>
   <v>       0.00000000       0.69327400       0.08107600 </v>
   <v>       0.50000000       0.69327400       0.41892400 </v>
  </varray>
 </structure>
 <calculation>
  <scstep>
   <time name="dav">    0.90    0.90</time>
   <time name="total">    1.00    1.00</time>
   <energy>
    <i name="alphaZ">     30.28014394 </i>
    <i name="ewald">  14975.37070712 </i>
    <i name="hartreedc"> -16930.57457869 </i>
    <i name="XCdc">     40.42313226 </i>
    <i name="pawpsdc">   1677.12035881 </i>
    <i name="pawaedc">  -1579.18296132 </i>
    <i name="eentropy">     -0.00045214 </i>
    <i name="bandstr">     31.76283301 </i>
    <i name="atom">   2112.49373795 </i>
    <i name="e_fr_energy">    357.69292092 </i>
    <i name="e_wo_entrp">    357.69337306 </i>
    <i name="e_0_energy">    357.69314699 </i>
   </energy>
  </scstep>
  <scstep>
   <time name="dav">    1.16    1.17</time>
   <time name="total">    1.16    1.17</time>
   <energy>
    <i name="e_fr_energy">    -24.38216594 </i>
    <i name="e_wo_entrp">    -24.38196424 </i>
    <i name="e_0_energy">    -24.38206509 </i>
   </energy>
  </scstep>
  <scstep>
   <time name="dav">    1.01    1.01</time>
   <time name="total">    1.01    1.01</time>
   <energy>
    <i name="e_fr_energy">    -63.10719076 </i>
    <i name="e_wo_entrp">    -63.10692679 </i>
    <i name="e_0_energy">    -63.10705878 </i>
   </energy>
  </scstep>
  <scstep>
   <time name="dav">    1.18    1.18</time>
   <time name="total">    1.18    1.18</time>
   <energy>
    <i name="e_fr_energy">    -64.54289103 </i>
    <i name="e_wo_entrp">    -64.54261748 </i>
    <i name="e_0_energy">    -64.54275426 </i>
   </energy>
  </scstep>
  <scstep>
   <time name="dav">    1.27    1.27</time>
   <time name="total">    1.32    1.32</time>
   <energy>
    <i name="e_fr_energy">    -64.58114373 </i>
    <i name="e_wo_entrp">    -64.58088732 </i>
    <i name="e_0_energy">    -64.58101553 </i>
   </energy>
  </scstep>
  <scstep>
   <time name="dav">    1.06    1.07</time>
   <time name="total">    1.20    1.20</time>
   <energy>
    <i name="e_fr_energy">    -64.24698503 </i>
    <i name="e_wo_entrp">    -64.24677371 </i>
    <i name="e_0_energy">    -64.24687937 </i>
   </energy>
  </scstep>
  <scstep>
   <time name="dav">    1.12    1.12</time>
   <time name="total">    1.26    1.26</time>
   <energy>
    <i name="e_fr_energy">    -64.10072187 </i>
    <i name="e_wo_entrp">    -64.10048204 </i>
    <i name="e_0_energy">    -64.10060195 </i>
   </energy>
  </scstep>
  <scstep>
   <time name="dav">    1.10    1.10</time>
   <time name="total">    1.23    1.24</time>
   <energy>
    <i name="e_fr_energy">    -64.10163281 </i>
    <i name="e_wo_entrp">    -64.10141845 </i>
    <i name="e_0_energy">    -64.10152563 </i>
   </energy>
  </scstep>
  <scstep>
   <time name="dav">    1.21    1.21</time>
   <time name="total">    1.34    1.35</time>
   <energy>
    <i name="e_fr_energy">    -64.10134578 </i>
    <i name="e_wo_entrp">    -64.10113541 </i>
    <i name="e_0_energy">    -64.10124059 </i>
   </energy>
  </scstep>
  <scstep>
   <time name="dav">    1.09    1.12</time>
   <time name="total">    1.23    1.26</time>
   <energy>
    <i name="e_fr_energy">    -64.10108577 </i>
    <i name="e_wo_entrp">    -64.10088001 </i>
    <i name="e_0_energy">    -64.10098289 </i>
   </energy>
  </scstep>
  <scstep>
   <time name="dav">    1.10    1.10</time>
   <time name="total">    1.24    1.24</time>
   <energy>
    <i name="e_fr_energy">    -64.10100830 </i>
    <i name="e_wo_entrp">    -64.10080194 </i>
    <i name="e_0_energy">    -64.10090512 </i>
   </energy>
  </scstep>
  <scstep>
   <time name="dav">    1.04    1.04</time>
   <time name="total">    1.18    1.18</time>
   <energy>
    <i name="e_fr_energy">    -64.10106938 </i>
    <i name="e_wo_entrp">    -64.10086295 </i>
    <i name="e_0_energy">    -64.10096617 </i>
   </energy>
  </scstep>
  <scstep>
   <time name="dav">    1.02    1.02</time>
   <time name="total">    1.16    1.16</time>
   <energy>
    <i name="e_fr_energy">    -64.10121607 </i>
    <i name="e_wo_entrp">    -64.10100840 </i>
    <i name="e_0_energy">    -64.10111224 </i>
   </energy>
  </scstep>
  <scstep>
   <time name="dav">    0.89    0.90</time>
   <time name="total">    1.03    1.03</time>
   <energy>
    <i name="e_fr_energy">    -64.10136514 </i>
    <i name="e_wo_entrp">    -64.10115681 </i>
    <i name="e_0_energy">    -64.10126097 </i>
   </energy>
  </scstep>
  <scstep>
   <time name="dav">    0.93    0.93</time>
   <time name="total">    1.07    1.09</time>
   <energy>
    <i name="e_fr_energy">    -64.10159414 </i>
    <i name="e_wo_entrp">    -64.10138490 </i>
    <i name="e_0_energy">    -64.10148952 </i>
   </energy>
  </scstep>
  <scstep>
   <time name="dav">    0.84    0.84</time>
   <time name="total">    0.98    0.98</time>
   <energy>
    <i name="e_fr_energy">    -64.10163707 </i>
    <i name="e_wo_entrp">    -64.10142798 </i>
    <i name="e_0_energy">    -64.10153253 </i>
   </energy>
  </scstep>
  <scstep>
   <time name="dav">    0.84    0.84</time>
   <time name="total">    0.98    0.98</time>
   <energy>
    <i name="e_fr_energy">    -64.10169301 </i>
    <i name="e_wo_entrp">    -64.10148399 </i>
    <i name="e_0_energy">    -64.10158850 </i>
   </energy>
  </scstep>
  <scstep>
   <time name="dav">    0.79    0.79</time>
   <time name="total">    0.93    0.93</time>
   <energy>
    <i name="e_fr_energy">    -64.10170484 </i>
    <i name="e_wo_entrp">    -64.10149579 </i>
    <i name="e_0_energy">    -64.10160031 </i>
   </energy>
  </scstep>
  <scstep>
   <time name="dav">    0.80    0.80</time>
   <time name="total">    0.94    0.94</time>
   <energy>
    <i name="e_fr_energy">    -64.10172533 </i>
    <i name="e_wo_entrp">    -64.10151623 </i>
    <i name="e_0_energy">    -64.10162078 </i>
   </energy>
  </scstep>
  <scstep>
   <time name="dav">    0.79    0.79</time>
   <time name="total">    0.96    0.96</time>
   <energy>
    <i name="alphaZ">     30.28014394 </i>
    <i name="ewald">  14975.37070712 </i>
    <i name="hartreedc"> -16966.54403071 </i>
    <i name="XCdc">     43.26580047 </i>
    <i name="pawpsdc">   6360.48749094 </i>
    <i name="pawaedc">  -6263.46472835 </i>
    <i name="eentropy">     -0.00020911 </i>
    <i name="bandstr">   -355.99064305 </i>
    <i name="atom">   2112.49373795 </i>
    <i name="e_fr_energy">    -64.10173081 </i>
    <i name="e_wo_entrp">    -64.10152170 </i>
    <i name="e_0_energy">    -64.10162626 </i>
   </energy>
  </scstep>
  <structure>
   <crystal>
    <varray name="basis" >
     <v>       3.34288600       0.00000000       0.00000000 </v>
     <v>       0.00000000      32.60240900       0.00000000 </v>
     <v>       0.00000000       0.00000000       4.37483100 </v>
    </varray>
    <i name="volume">    476.79592902 </i>
    <varray name="rec_basis" >
     <v>       0.29914272       0.00000000       0.00000000 </v>
     <v>       0.00000000       0.03067258       0.00000000 </v>
     <v>       0.00000000       0.00000000       0.22858026 </v>
    </varray>
   </crystal>
   <varray name="positions" >
    <v>       0.00000000       0.30672600       0.91892400 </v>
    <v>       0.50000000       0.30672600       0.58107600 </v>
    <v>       0.00000000       0.37246700       0.08107600 </v>
    <v>       0.50000000       0.37246700       0.41892400 </v>
    <v>       0.00000000       0.46712900       0.91892400 </v>
    <v>       0.50000000       0.46712900       0.58107600 </v>
    <v>       0.00000000       0.53287100       0.08107600 </v>
    <v>       0.50000000       0.53287100       0.41892400 </v>
    <v>       0.00000000       0.62753300       0.91892400 </v>
    <v>       0.50000000       0.62753300       0.58107600 </v>
    <v>       0.00000000       0.69327400       0.08107600 </v>
    <v>       0.50000000       0.69327400       0.41892400 </v>
   </varray>
  </structure>
  <varray name="forces" >
   <v>       0.00000000      -0.12269425      -0.14845729 </v>
   <v>       0.00000000      -0.12269425       0.14845729 </v>
   <v>       0.00000000      -0.09204771      -0.09414892 </v>
   <v>       0.00000000      -0.09204771       0.09414892 </v>
   <v>       0.00000000      -0.08344384       0.00572668 </v>
   <v>       0.00000000      -0.08344384      -0.00572668 </v>
   <v>       0.00000000       0.08344384      -0.00572668 </v>
   <v>       0.00000000       0.08344384       0.00572668 </v>
   <v>       0.00000000       0.09204771       0.09414892 </v>
   <v>      -0.00000000       0.09204771      -0.09414892 </v>
   <v>       0.00000000       0.12269425       0.14845729 </v>
   <v>       0.00000000       0.12269425      -0.14845729 </v>
  </varray>
  <varray name="stress" >
   <v>      -5.77121677       0.00000000       0.00000000 </v>
   <v>       0.00000000      16.58359602      -0.00000000 </v>
   <v>       0.00000000       0.00000000      -0.40442114 </v>
  </varray>
  <energy>
   <i name="e_fr_energy">    -66.19221999 </i>
   <i name="e_wo_entrp">    -66.19211543 </i>
   <i name="e_0_energy">     -0.00020911 </i>
  </energy>
  <time name="totalsc">   24.61   24.71</time>
  <eigenvalues>
   <array>
    <dimension dim="1">band</dimension>
    <dimension dim="2">kpoint</dimension>
    <dimension dim="3">spin</dimension>
    <field>eigene</field>
    <field>occ</field>
    <set>
     <set comment="spin 1">
      <set comment="kpoint 1">
       <r>  -14.9490    1.0000 </r>
       <r>  -14.7675    1.0000 </r>
       <r>  -14.7103    1.0000 </r>
       <r>  -12.4761    1.0000 </r>
       <r>  -12.1658    1.0000 </r>
       <r>  -12.0077    1.0000 </r>
       <r>   -8.7194    1.0000 </r>
       <r>   -8.5536    1.0000 </r>
       <r>   -8.5103    1.0000 </r>
       <r>   -6.0590    1.0000 </r>
       <r>   -5.6241    1.0000 </r>
       <r>   -5.1777    1.0000 </r>
       <r>   -4.7891    1.0000 </r>
       <r>   -4.5834    1.0000 </r>
       <r>   -4.2702    1.0000 </r>
       <r>   -4.1767    1.0000 </r>
       <r>   -4.0375    1.0000 </r>
       <r>   -3.8468    1.0000 </r>
       <r>   -3.4875    1.0000 </r>
       <r>   -3.3266    1.0000 </r>
       <r>   -3.2898    1.0000 </r>
       <r>   -2.0116    1.0000 </r>
       <r>   -1.8270    1.0000 </r>
       <r>   -1.6801    1.0000 </r>
       <r>   -1.6222    1.0000 </r>
       <r>   -1.5630    1.0000 </r>
       <r>   -1.1211    1.0000 </r>
       <r>   -0.5622    1.0000 </r>
       <r>    0.3325    1.0000 </r>
       <r>    0.9018    1.0000 </r>
       <r>    1.0177    1.0000 </r>
       <r>    1.4398    0.0000 </r>
       <r>    1.4943    0.0000 </r>
       <r>    1.6364    0.0000 </r>
       <r>    1.6660    0.0000 </r>
       <r>    1.9291    0.0000 </r>
       <r>    2.6514    0.0000 </r>
       <r>    2.8600    0.0000 </r>
       <r>    2.8989    0.0000 </r>
       <r>    3.6025    0.0000 </r>
      </set>
      <set comment="kpoint 2">
       <r>  -14.7672    1.0000 </r>
       <r>  -14.5859    1.0000 </r>
       <r>  -14.5289    1.0000 </r>
       <r>  -12.2876    1.0000 </r>
       <r>  -11.9771    1.0000 </r>
       <r>  -11.8188    1.0000 </r>
       <r>   -8.8813    1.0000 </r>
       <r>   -8.7156    1.0000 </r>
       <r>   -8.6726    1.0000 </r>
       <r>   -5.9048    1.0000 </r>
       <r>   -5.4731    1.0000 </r>
       <r>   -5.0687    1.0000 </r>
       <r>   -5.0401    1.0000 </r>
       <r>   -4.5889    1.0000 </r>
       <r>   -4.4281    1.0000 </r>
       <r>   -4.2467    1.0000 </r>
       <r>   -4.2249    1.0000 </r>
       <r>   -4.0811    1.0000 </r>
       <r>   -4.0390    1.0000 </r>
       <r>   -4.0253    1.0000 </r>
       <r>   -3.8819    1.0000 </r>
       <r>   -2.5575    1.0000 </r>
       <r>   -2.3212    1.0000 </r>
       <r>   -2.1996    1.0000 </r>
       <r>   -1.9402    1.0000 </r>
       <r>   -1.5836    1.0000 </r>
       <r>   -1.0117    1.0000 </r>
       <r>   -0.6607    1.0000 </r>
       <r>    0.2474    1.0000 </r>
       <r>    1.0486    0.4948 </r>
       <r>    1.0666    0.0052 </r>
       <r>    1.6319    0.0000 </r>
       <r>    1.7809    0.0000 </r>
       <r>    2.7403    0.0000 </r>
       <r>    2.8158    0.0000 </r>
       <r>    2.8698    0.0000 </r>
       <r>    2.8904    0.0000 </r>
       <r>    3.0106    0.0000 </r>
       <r>    3.1281    0.0000 </r>
       <r>    3.8317    0.0000 </r>
      </set>
      <set comment="kpoint 3">
       <r>  -14.2269    1.0000 </r>
       <r>  -14.0465    1.0000 </r>
       <r>  -13.9904    1.0000 </r>
       <r>  -11.7251    1.0000 </r>
       <r>  -11.4140    1.0000 </r>
       <r>  -11.2549    1.0000 </r>
       <r>   -9.5733    1.0000 </r>
       <r>   -9.4052    1.0000 </r>
       <r>   -9.3607    1.0000 </r>
       <r>   -6.2888    1.0000 </r>
       <r>   -5.9150    1.0000 </r>
       <r>   -5.6860    1.0000 </r>
       <r>   -5.4640    1.0000 </r>
       <r>   -5.0478    1.0000 </r>
       <r>   -5.0106    1.0000 </r>
       <r>   -4.8438    1.0000 </r>
       <r>   -4.8040    1.0000 </r>
       <r>   -4.6677    1.0000 </r>
       <r>   -3.9891    1.0000 </r>
       <r>   -3.6015    1.0000 </r>
       <r>   -3.4381    1.0000 </r>
       <r>   -2.9601    1.0000 </r>
       <r>   -2.6443    1.0000 </r>
       <r>   -2.3742    1.0000 </r>
       <r>   -1.8865    1.0000 </r>
       <r>   -1.4360    1.0000 </r>
       <r>   -1.0675    1.0000 </r>
       <r>   -0.8269    1.0000 </r>
       <r>   -0.1977    1.0000 </r>
       <r>    0.5596    1.0000 </r>
       <r>    1.3121    0.0000 </r>
       <r>    1.3687    0.0000 </r>
       <r>    1.6353    0.0000 </r>
       <r>    1.6685    0.0000 </r>
       <r>    2.2642    0.0000 </r>
       <r>    2.4303    0.0000 </r>
       <r>    3.1402    0.0000 </r>
       <r>    3.4665    0.0000 </r>
       <r>    3.5282    0.0000 </r>
       <r>    3.6514    0.0000 </r>
      </set>
      <set comment="kpoint 4">
       <r>  -13.3471    1.0000 </r>
       <r>  -13.1682    1.0000 </r>
       <r>  -13.1137    1.0000 </r>
       <r>  -10.8182    1.0000 </r>
       <r>  -10.7985    1.0000 </r>
       <r>  -10.6455    1.0000 </r>
       <r>  -10.5970    1.0000 </r>
       <r>  -10.4856    1.0000 </r>
       <r>  -10.3245    1.0000 </r>
       <r>   -7.9718    1.0000 </r>
       <r>   -7.6407    1.0000 </r>
       <r>   -7.4599    1.0000 </r>
       <r>   -4.9313    1.0000 </r>
       <r>   -4.8472    1.0000 </r>
       <r>   -4.7695    1.0000 </r>
       <r>   -4.7368    1.0000 </r>
       <r>   -4.4931    1.0000 </r>
       <r>   -4.2598    1.0000 </r>
       <r>   -3.4000    1.0000 </r>
       <r>   -3.0782    1.0000 </r>
       <r>   -2.8107    1.0000 </r>
       <r>   -2.8025    1.0000 </r>
       <r>   -2.5653    1.0000 </r>
       <r>   -2.1942    1.0000 </r>
       <r>   -2.1437    1.0000 </r>
       <r>   -1.7034    1.0000 </r>
       <r>   -1.6140    1.0000 </r>
       <r>   -1.0452    1.0000 </r>
       <r>   -0.9404    1.0000 </r>
       <r>   -0.2990    1.0000 </r>
       <r>    1.1033    0.0000 </r>
       <r>    1.1977    0.0000 </r>
       <r>    1.4396    0.0000 </r>
       <r>    1.6578    0.0000 </r>
       <r>    1.9657    0.0000 </r>
       <r>    2.0747    0.0000 </r>
       <r>    2.3366    0.0000 </r>
       <r>    2.4225    0.0000 </r>
       <r>    2.5033    0.0000 </r>
       <r>    2.7397    0.0000 </r>
      </set>
      <set comment="kpoint 5">
       <r>  -12.1731    1.0000 </r>
       <r>  -12.1731    1.0000 </r>
       <r>  -11.9967    1.0000 </r>
       <r>  -11.9967    1.0000 </r>
       <r>  -11.9447    1.0000 </r>
       <r>  -11.9447    1.0000 </r>
       <r>   -9.5298    1.0000 </r>
       <r>   -9.5298    1.0000 </r>
       <r>   -9.2122    1.0000 </r>
       <r>   -9.2122    1.0000 </r>
       <r>   -9.0459    1.0000 </r>
       <r>   -9.0459    1.0000 </r>
       <r>   -4.5512    1.0000 </r>
       <r>   -4.5512    1.0000 </r>
       <r>   -4.3541    1.0000 </r>
       <r>   -4.3541    1.0000 </r>
       <r>   -4.3038    1.0000 </r>
       <r>   -4.3038    1.0000 </r>
       <r>   -2.9439    1.0000 </r>
       <r>   -2.9439    1.0000 </r>
       <r>   -2.8950    1.0000 </r>
       <r>   -2.8950    1.0000 </r>
       <r>   -2.2619    1.0000 </r>
       <r>   -2.2619    1.0000 </r>
       <r>   -2.1135    1.0000 </r>
       <r>   -2.1135    1.0000 </r>
       <r>   -1.5324    1.0000 </r>
       <r>   -1.5324    1.0000 </r>
       <r>   -1.0148    1.0000 </r>
       <r>   -1.0148    1.0000 </r>
       <r>    1.1873    0.0000 </r>
       <r>    1.1873    0.0000 </r>
       <r>    1.6073    0.0000 </r>
       <r>    1.6073    0.0000 </r>
       <r>    1.9627    0.0000 </r>
       <r>    1.9627    0.0000 </r>
       <r>    2.0063    0.0000 </r>
       <r>    2.0063    0.0000 </r>
       <r>    2.0840    0.0000 </r>
       <r>    2.0841    0.0000 </r>
      </set>
      <set comment="kpoint 6">
       <r>  -14.8333    1.0000 </r>
       <r>  -14.6537    1.0000 </r>
       <r>  -14.5985    1.0000 </r>
       <r>  -12.5329    1.0000 </r>
       <r>  -12.2638    1.0000 </r>
       <r>  -12.1529    1.0000 </r>
       <r>   -8.8719    1.0000 </r>
       <r>   -8.7431    1.0000 </r>
       <r>   -8.7246    1.0000 </r>
       <r>   -6.2080    1.0000 </r>
       <r>   -6.0646    1.0000 </r>
       <r>   -5.9571    1.0000 </r>
       <r>   -4.5545    1.0000 </r>
       <r>   -4.5446    1.0000 </r>
       <r>   -4.0277    1.0000 </r>
       <r>   -3.8814    1.0000 </r>
       <r>   -3.5096    1.0000 </r>
       <r>   -3.4969    1.0000 </r>
       <r>   -3.3955    1.0000 </r>
       <r>   -3.2368    1.0000 </r>
       <r>   -3.2023    1.0000 </r>
       <r>   -1.8645    1.0000 </r>
       <r>   -1.6739    1.0000 </r>
       <r>   -1.6293    1.0000 </r>
       <r>   -1.2163    1.0000 </r>
       <r>   -1.1989    1.0000 </r>
       <r>   -1.0664    1.0000 </r>
       <r>   -0.7384    1.0000 </r>
       <r>   -0.3296    1.0000 </r>
       <r>    0.2574    1.0000 </r>
       <r>    1.5851    0.0000 </r>
       <r>    1.6377    0.0000 </r>
       <r>    1.7861    0.0000 </r>
       <r>    1.9104    0.0000 </r>
       <r>    2.0799    0.0000 </r>
       <r>    2.2925    0.0000 </r>
       <r>    2.4535    0.0000 </r>
       <r>    2.6445    0.0000 </r>
       <r>    2.6599    0.0000 </r>
       <r>    3.4260    0.0000 </r>
      </set>
      <set comment="kpoint 7">
       <r>  -14.6523    1.0000 </r>
       <r>  -14.4730    1.0000 </r>
       <r>  -14.4180    1.0000 </r>
       <r>  -12.3480    1.0000 </r>
       <r>  -12.0802    1.0000 </r>
       <r>  -11.9710    1.0000 </r>
       <r>   -8.9578    1.0000 </r>
       <r>   -8.8299    1.0000 </r>
       <r>   -8.8142    1.0000 </r>
       <r>   -6.1649    1.0000 </r>
       <r>   -5.9719    1.0000 </r>
       <r>   -5.8970    1.0000 </r>
       <r>   -4.7795    1.0000 </r>
       <r>   -4.7147    1.0000 </r>
       <r>   -4.4442    1.0000 </r>
       <r>   -4.3364    1.0000 </r>
       <r>   -4.1934    1.0000 </r>
       <r>   -4.0284    1.0000 </r>
       <r>   -3.4047    1.0000 </r>
       <r>   -3.2177    1.0000 </r>
       <r>   -3.1344    1.0000 </r>
       <r>   -2.6672    1.0000 </r>
       <r>   -2.5577    1.0000 </r>
       <r>   -2.5463    1.0000 </r>
       <r>   -1.2322    1.0000 </r>
       <r>   -1.1993    1.0000 </r>
       <r>   -1.0179    1.0000 </r>
       <r>   -0.6911    1.0000 </r>
       <r>   -0.3238    1.0000 </r>
       <r>    0.3307    1.0000 </r>
       <r>    1.6725    0.0000 </r>
       <r>    2.0835    0.0000 </r>
       <r>    2.2696    0.0000 </r>
       <r>    2.6125    0.0000 </r>
       <r>    2.7410    0.0000 </r>
       <r>    2.7827    0.0000 </r>
       <r>    2.9331    0.0000 </r>
       <r>    3.1056    0.0000 </r>
       <r>    3.1663    0.0000 </r>
       <r>    3.8302    0.0000 </r>
      </set>
      <set comment="kpoint 8">
       <r>  -14.1153    1.0000 </r>
       <r>  -13.9367    1.0000 </r>
       <r>  -13.8826    1.0000 </r>
       <r>  -11.8027    1.0000 </r>
       <r>  -11.5424    1.0000 </r>
       <r>  -11.4440    1.0000 </r>
       <r>   -9.4616    1.0000 </r>
       <r>   -9.3329    1.0000 </r>
       <r>   -9.3182    1.0000 </r>
       <r>   -6.5962    1.0000 </r>
       <r>   -6.2488    1.0000 </r>
       <r>   -6.0818    1.0000 </r>
       <r>   -5.4976    1.0000 </r>
       <r>   -5.4284    1.0000 </r>
       <r>   -5.2730    1.0000 </r>
       <r>   -5.0228    1.0000 </r>
       <r>   -4.6963    1.0000 </r>
       <r>   -4.5987    1.0000 </r>
       <r>   -3.3294    1.0000 </r>
       <r>   -3.2608    1.0000 </r>
       <r>   -2.9614    1.0000 </r>
       <r>   -2.9387    1.0000 </r>
       <r>   -2.8046    1.0000 </r>
       <r>   -2.7525    1.0000 </r>
       <r>   -1.6331    1.0000 </r>
       <r>   -1.4116    1.0000 </r>
       <r>   -1.2510    1.0000 </r>
       <r>   -0.8758    1.0000 </r>
       <r>   -0.4642    1.0000 </r>
       <r>    0.2175    1.0000 </r>
       <r>    1.6346    0.0000 </r>
       <r>    1.7249    0.0000 </r>
       <r>    1.9926    0.0000 </r>
       <r>    2.0630    0.0000 </r>
       <r>    2.5067    0.0000 </r>
       <r>    2.5662    0.0000 </r>
       <r>    2.7871    0.0000 </r>
       <r>    3.0592    0.0000 </r>
       <r>    3.2739    0.0000 </r>
       <r>    3.8512    0.0000 </r>
      </set>
      <set comment="kpoint 9">
       <r>  -13.2443    1.0000 </r>
       <r>  -13.0671    1.0000 </r>
       <r>  -13.0144    1.0000 </r>
       <r>  -11.0813    1.0000 </r>
       <r>  -10.9470    1.0000 </r>
       <r>  -10.9206    1.0000 </r>
       <r>  -10.3529    1.0000 </r>
       <r>  -10.1803    1.0000 </r>
       <r>  -10.0991    1.0000 </r>
       <r>   -8.0421    1.0000 </r>
       <r>   -7.7323    1.0000 </r>
       <r>   -7.5770    1.0000 </r>
       <r>   -5.3806    1.0000 </r>
       <r>   -5.2732    1.0000 </r>
       <r>   -5.1860    1.0000 </r>
       <r>   -4.7142    1.0000 </r>
       <r>   -4.4357    1.0000 </r>
       <r>   -4.3982    1.0000 </r>
       <r>   -3.2934    1.0000 </r>
       <r>   -3.1290    1.0000 </r>
       <r>   -2.9830    1.0000 </r>
       <r>   -2.8983    1.0000 </r>
       <r>   -2.7011    1.0000 </r>
       <r>   -2.5865    1.0000 </r>
       <r>   -2.2130    1.0000 </r>
       <r>   -1.7633    1.0000 </r>
       <r>   -1.5169    1.0000 </r>
       <r>   -1.0907    1.0000 </r>
       <r>   -0.8233    1.0000 </r>
       <r>   -0.2500    1.0000 </r>
       <r>    1.5067    0.0000 </r>
       <r>    1.6626    0.0000 </r>
       <r>    1.9333    0.0000 </r>
       <r>    1.9838    0.0000 </r>
       <r>    2.0187    0.0000 </r>
       <r>    2.1862    0.0000 </r>
       <r>    2.3691    0.0000 </r>
       <r>    2.5322    0.0000 </r>
       <r>    2.7236    0.0000 </r>
       <r>    2.9589    0.0000 </r>
      </set>
      <set comment="kpoint 10">
       <r>  -12.1011    1.0000 </r>
       <r>  -12.1011    1.0000 </r>
       <r>  -11.9262    1.0000 </r>
       <r>  -11.9262    1.0000 </r>
       <r>  -11.8757    1.0000 </r>
       <r>  -11.8757    1.0000 </r>
       <r>   -9.5374    1.0000 </r>
       <r>   -9.5374    1.0000 </r>
       <r>   -9.2411    1.0000 </r>
       <r>   -9.2411    1.0000 </r>
       <r>   -9.0992    1.0000 </r>
       <r>   -9.0992    1.0000 </r>
       <r>   -4.8169    1.0000 </r>
       <r>   -4.8169    1.0000 </r>
       <r>   -4.5784    1.0000 </r>
       <r>   -4.5784    1.0000 </r>
       <r>   -4.4747    1.0000 </r>
       <r>   -4.4747    1.0000 </r>
       <r>   -3.5047    1.0000 </r>
       <r>   -3.5047    1.0000 </r>
       <r>   -3.1037    1.0000 </r>
       <r>   -3.1037    1.0000 </r>
       <r>   -2.6557    1.0000 </r>
       <r>   -2.6557    1.0000 </r>
       <r>   -1.9822    1.0000 </r>
       <r>   -1.9822    1.0000 </r>
       <r>   -1.2858    1.0000 </r>
       <r>   -1.2858    1.0000 </r>
       <r>   -0.6161    1.0000 </r>
       <r>   -0.6161    1.0000 </r>
       <r>    1.1402    0.0000 </r>
       <r>    1.1402    0.0000 </r>
       <r>    1.5737    0.0000 </r>
       <r>    1.5737    0.0000 </r>
       <r>    1.7606    0.0000 </r>
       <r>    1.7606    0.0000 </r>
       <r>    2.8219    0.0000 </r>
       <r>    2.8219    0.0000 </r>
       <r>    3.1695    0.0000 </r>
       <r>    3.1713    0.0000 </r>
      </set>
      <set comment="kpoint 11">
       <r>  -14.4950    1.0000 </r>
       <r>  -14.3221    1.0000 </r>
       <r>  -14.2743    1.0000 </r>
       <r>  -12.7858    1.0000 </r>
       <r>  -12.6091    1.0000 </r>
       <r>  -12.5896    1.0000 </r>
       <r>   -9.1302    1.0000 </r>
       <r>   -8.8901    1.0000 </r>
       <r>   -8.7504    1.0000 </r>
       <r>   -7.3339    1.0000 </r>
       <r>   -6.9428    1.0000 </r>
       <r>   -6.7189    1.0000 </r>
       <r>   -4.6449    1.0000 </r>
       <r>   -4.0112    1.0000 </r>
       <r>   -3.2711    1.0000 </r>
       <r>   -3.1327    1.0000 </r>
       <r>   -2.9815    1.0000 </r>
       <r>   -2.9545    1.0000 </r>
       <r>   -2.7990    1.0000 </r>
       <r>   -2.5464    1.0000 </r>
       <r>   -2.4568    1.0000 </r>
       <r>   -2.1731    1.0000 </r>
       <r>   -2.0130    1.0000 </r>
       <r>   -1.8549    1.0000 </r>
       <r>   -1.8419    1.0000 </r>
       <r>   -1.3579    1.0000 </r>
       <r>   -0.5918    1.0000 </r>
       <r>   -0.1347    1.0000 </r>
       <r>   -0.0613    1.0000 </r>
       <r>    0.0738    1.0000 </r>
       <r>    1.8702    0.0000 </r>
       <r>    1.8825    0.0000 </r>
       <r>    1.9873    0.0000 </r>
       <r>    2.1142    0.0000 </r>
       <r>    2.1197    0.0000 </r>
       <r>    2.1705    0.0000 </r>
       <r>    2.5126    0.0000 </r>
       <r>    2.9651    0.0000 </r>
       <r>    3.1510    0.0000 </r>
       <r>    3.3226    0.0000 </r>
      </set>
      <set comment="kpoint 12">
       <r>  -14.3166    1.0000 </r>
       <r>  -14.1438    1.0000 </r>
       <r>  -14.0962    1.0000 </r>
       <r>  -12.6096    1.0000 </r>
       <r>  -12.4348    1.0000 </r>
       <r>  -12.4172    1.0000 </r>
       <r>   -9.1061    1.0000 </r>
       <r>   -8.8747    1.0000 </r>
       <r>   -8.7483    1.0000 </r>
       <r>   -7.2638    1.0000 </r>
       <r>   -6.8762    1.0000 </r>
       <r>   -6.6510    1.0000 </r>
       <r>   -4.6543    1.0000 </r>
       <r>   -4.5361    1.0000 </r>
       <r>   -4.3097    1.0000 </r>
       <r>   -4.2186    1.0000 </r>
       <r>   -3.7941    1.0000 </r>
       <r>   -3.4033    1.0000 </r>
       <r>   -3.0147    1.0000 </r>
       <r>   -2.9561    1.0000 </r>
       <r>   -2.8426    1.0000 </r>
       <r>   -2.3561    1.0000 </r>
       <r>   -2.2099    1.0000 </r>
       <r>   -2.0219    1.0000 </r>
       <r>   -1.7945    1.0000 </r>
       <r>   -1.2427    1.0000 </r>
       <r>   -0.5668    1.0000 </r>
       <r>   -0.4785    1.0000 </r>
       <r>   -0.3623    1.0000 </r>
       <r>   -0.3008    1.0000 </r>
       <r>    2.2494    0.0000 </r>
       <r>    2.5698    0.0000 </r>
       <r>    2.8649    0.0000 </r>
       <r>    2.9664    0.0000 </r>
       <r>    2.9984    0.0000 </r>
       <r>    3.0817    0.0000 </r>
       <r>    3.1966    0.0000 </r>
       <r>    3.3070    0.0000 </r>
       <r>    3.4702    0.0000 </r>
       <r>    3.4902    0.0000 </r>
      </set>
      <set comment="kpoint 13">
       <r>  -13.7894    1.0000 </r>
       <r>  -13.6172    1.0000 </r>
       <r>  -13.5700    1.0000 </r>
       <r>  -12.1018    1.0000 </r>
       <r>  -11.9355    1.0000 </r>
       <r>  -11.9263    1.0000 </r>
       <r>   -9.2561    1.0000 </r>
       <r>   -9.0621    1.0000 </r>
       <r>   -8.9877    1.0000 </r>
       <r>   -7.3280    1.0000 </r>
       <r>   -6.9805    1.0000 </r>
       <r>   -6.7890    1.0000 </r>
       <r>   -5.7383    1.0000 </r>
       <r>   -5.6139    1.0000 </r>
       <r>   -5.5312    1.0000 </r>
       <r>   -4.8149    1.0000 </r>
       <r>   -4.7250    1.0000 </r>
       <r>   -4.6257    1.0000 </r>
       <r>   -3.7104    1.0000 </r>
       <r>   -3.3496    1.0000 </r>
       <r>   -3.0454    1.0000 </r>
       <r>   -2.4390    1.0000 </r>
       <r>   -2.2182    1.0000 </r>
       <r>   -2.1825    1.0000 </r>
       <r>   -1.5116    1.0000 </r>
       <r>   -1.4803    1.0000 </r>
       <r>   -1.3210    1.0000 </r>
       <r>   -1.0324    1.0000 </r>
       <r>   -0.8956    1.0000 </r>
       <r>   -0.2955    1.0000 </r>
       <r>    2.1358    0.0000 </r>
       <r>    2.3926    0.0000 </r>
       <r>    2.4723    0.0000 </r>
       <r>    2.5517    0.0000 </r>
       <r>    2.6241    0.0000 </r>
       <r>    2.8154    0.0000 </r>
       <r>    3.1799    0.0000 </r>
       <r>    3.2865    0.0000 </r>
       <r>    3.3147    0.0000 </r>
       <r>    4.4889    0.0000 </r>
      </set>
      <set comment="kpoint 14">
       <r>  -12.9476    1.0000 </r>
       <r>  -12.7760    1.0000 </r>
       <r>  -12.7293    1.0000 </r>
       <r>  -11.4643    1.0000 </r>
       <r>  -11.3244    1.0000 </r>
       <r>  -11.3189    1.0000 </r>
       <r>   -9.9051    1.0000 </r>
       <r>   -9.7179    1.0000 </r>
       <r>   -9.6635    1.0000 </r>
       <r>   -8.2994    1.0000 </r>
       <r>   -8.0390    1.0000 </r>
       <r>   -7.9385    1.0000 </r>
       <r>   -5.8756    1.0000 </r>
       <r>   -5.7058    1.0000 </r>
       <r>   -5.5800    1.0000 </r>
       <r>   -4.8869    1.0000 </r>
       <r>   -4.6893    1.0000 </r>
       <r>   -4.6696    1.0000 </r>
       <r>   -3.9086    1.0000 </r>
       <r>   -3.7177    1.0000 </r>
       <r>   -3.5558    1.0000 </r>
       <r>   -3.0453    1.0000 </r>
       <r>   -2.8907    1.0000 </r>
       <r>   -2.7368    1.0000 </r>
       <r>   -2.3155    1.0000 </r>
       <r>   -1.7674    1.0000 </r>
       <r>   -1.4035    1.0000 </r>
       <r>   -1.0268    1.0000 </r>
       <r>   -0.7129    1.0000 </r>
       <r>   -0.0626    1.0000 </r>
       <r>    1.6797    0.0000 </r>
       <r>    1.9564    0.0000 </r>
       <r>    2.0964    0.0000 </r>
       <r>    2.4730    0.0000 </r>
       <r>    2.7596    0.0000 </r>
       <r>    2.8500    0.0000 </r>
       <r>    3.5323    0.0000 </r>
       <r>    3.6430    0.0000 </r>
       <r>    3.6864    0.0000 </r>
       <r>    3.7313    0.0000 </r>
      </set>
      <set comment="kpoint 15">
       <r>  -11.9182    1.0000 </r>
       <r>  -11.9182    1.0000 </r>
       <r>  -11.7475    1.0000 </r>
       <r>  -11.7475    1.0000 </r>
       <r>  -11.7016    1.0000 </r>
       <r>  -11.7016    1.0000 </r>
       <r>   -9.5855    1.0000 </r>
       <r>   -9.5855    1.0000 </r>
       <r>   -9.3435    1.0000 </r>
       <r>   -9.3435    1.0000 </r>
       <r>   -9.2603    1.0000 </r>
       <r>   -9.2603    1.0000 </r>
       <r>   -5.1880    1.0000 </r>
       <r>   -5.1880    1.0000 </r>
       <r>   -4.9029    1.0000 </r>
       <r>   -4.9029    1.0000 </r>
       <r>   -4.7327    1.0000 </r>
       <r>   -4.7327    1.0000 </r>
       <r>   -4.1413    1.0000 </r>
       <r>   -4.1413    1.0000 </r>
       <r>   -3.7703    1.0000 </r>
       <r>   -3.7703    1.0000 </r>
       <r>   -3.4140    1.0000 </r>
       <r>   -3.4140    1.0000 </r>
       <r>   -1.9800    1.0000 </r>
       <r>   -1.9800    1.0000 </r>
       <r>   -1.1791    1.0000 </r>
       <r>   -1.1791    1.0000 </r>
       <r>   -0.3665    1.0000 </r>
       <r>   -0.3665    1.0000 </r>
       <r>    2.0859    0.0000 </r>
       <r>    2.0859    0.0000 </r>
       <r>    2.4124    0.0000 </r>
       <r>    2.4124    0.0000 </r>
       <r>    2.7973    0.0000 </r>
       <r>    2.7973    0.0000 </r>
       <r>    3.0254    0.0000 </r>
       <r>    3.0254    0.0000 </r>
       <r>    3.3815    0.0000 </r>
       <r>    3.3815    0.0000 </r>
      </set>
      <set comment="kpoint 16">
       <r>  -13.9662    1.0000 </r>
       <r>  -13.8099    1.0000 </r>
       <r>  -13.7788    1.0000 </r>
       <r>  -13.3263    1.0000 </r>
       <r>  -13.1772    1.0000 </r>
       <r>  -13.1747    1.0000 </r>
       <r>   -8.9594    1.0000 </r>
       <r>   -8.6078    1.0000 </r>
       <r>   -8.3587    1.0000 </r>
       <r>   -8.3088    1.0000 </r>
       <r>   -7.9047    1.0000 </r>
       <r>   -7.6225    1.0000 </r>
       <r>   -4.1449    1.0000 </r>
       <r>   -3.4036    1.0000 </r>
       <r>   -3.2455    1.0000 </r>
       <r>   -2.7446    1.0000 </r>
       <r>   -2.6110    1.0000 </r>
       <r>   -2.5981    1.0000 </r>
       <r>   -2.5570    1.0000 </r>
       <r>   -2.3852    1.0000 </r>
       <r>   -2.3255    1.0000 </r>
       <r>   -2.1793    1.0000 </r>
       <r>   -2.1788    1.0000 </r>
       <r>   -1.8014    1.0000 </r>
       <r>   -1.1653    1.0000 </r>
       <r>   -1.1612    1.0000 </r>
       <r>   -1.1042    1.0000 </r>
       <r>   -0.2107    1.0000 </r>
       <r>   -0.0862    1.0000 </r>
       <r>   -0.0663    1.0000 </r>
       <r>    1.7823    0.0000 </r>
       <r>    1.9470    0.0000 </r>
       <r>    2.0721    0.0000 </r>
       <r>    2.2389    0.0000 </r>
       <r>    2.3275    0.0000 </r>
       <r>    2.4268    0.0000 </r>
       <r>    3.1621    0.0000 </r>
       <r>    3.2786    0.0000 </r>
       <r>    3.3655    0.0000 </r>
       <r>    3.4471    0.0000 </r>
      </set>
      <set comment="kpoint 17">
       <r>  -13.7917    1.0000 </r>
       <r>  -13.6353    1.0000 </r>
       <r>  -13.6041    1.0000 </r>
       <r>  -13.1550    1.0000 </r>
       <r>  -13.0058    1.0000 </r>
       <r>  -13.0029    1.0000 </r>
       <r>   -8.8824    1.0000 </r>
       <r>   -8.5394    1.0000 </r>
       <r>   -8.3045    1.0000 </r>
       <r>   -8.2210    1.0000 </r>
       <r>   -7.8250    1.0000 </r>
       <r>   -7.5541    1.0000 </r>
       <r>   -4.1329    1.0000 </r>
       <r>   -4.0942    1.0000 </r>
       <r>   -3.9212    1.0000 </r>
       <r>   -3.8365    1.0000 </r>
       <r>   -3.5757    1.0000 </r>
       <r>   -3.4780    1.0000 </r>
       <r>   -3.4070    1.0000 </r>
       <r>   -3.2700    1.0000 </r>
       <r>   -3.0488    1.0000 </r>
       <r>   -2.5000    1.0000 </r>
       <r>   -2.2766    1.0000 </r>
       <r>   -1.7273    1.0000 </r>
       <r>   -0.8569    1.0000 </r>
       <r>   -0.7831    1.0000 </r>
       <r>   -0.7563    1.0000 </r>
       <r>   -0.4052    1.0000 </r>
       <r>   -0.2924    1.0000 </r>
       <r>   -0.2529    1.0000 </r>
       <r>    2.5811    0.0000 </r>
       <r>    2.7817    0.0000 </r>
       <r>    2.8629    0.0000 </r>
       <r>    2.8832    0.0000 </r>
       <r>    2.9083    0.0000 </r>
       <r>    3.0267    0.0000 </r>
       <r>    3.0589    0.0000 </r>
       <r>    3.2595    0.0000 </r>
       <r>    3.5915    0.0000 </r>
       <r>    3.7335    0.0000 </r>
      </set>
      <set comment="kpoint 18">
       <r>  -13.2810    1.0000 </r>
       <r>  -13.1240    1.0000 </r>
       <r>  -13.0922    1.0000 </r>
       <r>  -12.6608    1.0000 </r>
       <r>  -12.5109    1.0000 </r>
       <r>  -12.5060    1.0000 </r>
       <r>   -8.8341    1.0000 </r>
       <r>   -8.5441    1.0000 </r>
       <r>   -8.3866    1.0000 </r>
       <r>   -8.1482    1.0000 </r>
       <r>   -7.8084    1.0000 </r>
       <r>   -7.6151    1.0000 </r>
       <r>   -5.5750    1.0000 </r>
       <r>   -5.4464    1.0000 </r>
       <r>   -5.3805    1.0000 </r>
       <r>   -5.1545    1.0000 </r>
       <r>   -4.9980    1.0000 </r>
       <r>   -4.9612    1.0000 </r>
       <r>   -3.6286    1.0000 </r>
       <r>   -3.1057    1.0000 </r>
       <r>   -2.8990    1.0000 </r>
       <r>   -2.7760    1.0000 </r>
       <r>   -2.3669    1.0000 </r>
       <r>   -2.2982    1.0000 </r>
       <r>   -1.3920    1.0000 </r>
       <r>   -1.2939    1.0000 </r>
       <r>   -1.1900    1.0000 </r>
       <r>   -1.1169    1.0000 </r>
       <r>   -0.8706    1.0000 </r>
       <r>   -0.6154    1.0000 </r>
       <r>    2.4352    0.0000 </r>
       <r>    2.8092    0.0000 </r>
       <r>    2.9329    0.0000 </r>
       <r>    3.3129    0.0000 </r>
       <r>    3.3936    0.0000 </r>
       <r>    3.5149    0.0000 </r>
       <r>    3.6249    0.0000 </r>
       <r>    3.7692    0.0000 </r>
       <r>    3.8173    0.0000 </r>
       <r>    4.1807    0.0000 </r>
      </set>
      <set comment="kpoint 19">
       <r>  -12.4955    1.0000 </r>
       <r>  -12.3362    1.0000 </r>
       <r>  -12.3018    1.0000 </r>
       <r>  -11.9631    1.0000 </r>
       <r>  -11.8085    1.0000 </r>
       <r>  -11.7940    1.0000 </r>
       <r>   -9.3538    1.0000 </r>
       <r>   -9.1579    1.0000 </r>
       <r>   -9.1098    1.0000 </r>
       <r>   -8.7711    1.0000 </r>
       <r>   -8.5516    1.0000 </r>
       <r>   -8.4925    1.0000 </r>
       <r>   -5.9272    1.0000 </r>
       <r>   -5.7082    1.0000 </r>
       <r>   -5.5308    1.0000 </r>
       <r>   -5.5132    1.0000 </r>
       <r>   -5.2533    1.0000 </r>
       <r>   -5.0872    1.0000 </r>
       <r>   -3.9282    1.0000 </r>
       <r>   -3.6989    1.0000 </r>
       <r>   -3.6445    1.0000 </r>
       <r>   -3.5174    1.0000 </r>
       <r>   -3.2636    1.0000 </r>
       <r>   -3.1977    1.0000 </r>
       <r>   -2.2200    1.0000 </r>
       <r>   -1.8240    1.0000 </r>
       <r>   -1.4841    1.0000 </r>
       <r>   -1.0954    1.0000 </r>
       <r>   -0.6668    1.0000 </r>
       <r>   -0.2821    1.0000 </r>
       <r>    2.4545    0.0000 </r>
       <r>    2.6433    0.0000 </r>
       <r>    2.7753    0.0000 </r>
       <r>    3.0350    0.0000 </r>
       <r>    3.3134    0.0000 </r>
       <r>    3.4115    0.0000 </r>
       <r>    3.6568    0.0000 </r>
       <r>    3.7154    0.0000 </r>
       <r>    3.7751    0.0000 </r>
       <r>    4.4395    0.0000 </r>
      </set>
      <set comment="kpoint 20">
       <r>  -11.7411    1.0000 </r>
       <r>  -11.7411    1.0000 </r>
       <r>  -11.5754    1.0000 </r>
       <r>  -11.5754    1.0000 </r>
       <r>  -11.5349    1.0000 </r>
       <r>  -11.5349    1.0000 </r>
       <r>   -9.6701    1.0000 </r>
       <r>   -9.6701    1.0000 </r>
       <r>   -9.4754    1.0000 </r>
       <r>   -9.4754    1.0000 </r>
       <r>   -9.4391    1.0000 </r>
       <r>   -9.4391    1.0000 </r>
       <r>   -5.2200    1.0000 </r>
       <r>   -5.2200    1.0000 </r>
       <r>   -4.9060    1.0000 </r>
       <r>   -4.9060    1.0000 </r>
       <r>   -4.7781    1.0000 </r>
       <r>   -4.7781    1.0000 </r>
       <r>   -4.6283    1.0000 </r>
       <r>   -4.6283    1.0000 </r>
       <r>   -4.4340    1.0000 </r>
       <r>   -4.4340    1.0000 </r>
       <r>   -4.1299    1.0000 </r>
       <r>   -4.1299    1.0000 </r>
       <r>   -2.0082    1.0000 </r>
       <r>   -2.0082    1.0000 </r>
       <r>   -1.1279    1.0000 </r>
       <r>   -1.1279    1.0000 </r>
       <r>   -0.2591    1.0000 </r>
       <r>   -0.2591    1.0000 </r>
       <r>    2.2027    0.0000 </r>
       <r>    2.2027    0.0000 </r>
       <r>    2.7172    0.0000 </r>
       <r>    2.7172    0.0000 </r>
       <r>    2.9870    0.0000 </r>
       <r>    2.9870    0.0000 </r>
       <r>    4.3105    0.0000 </r>
       <r>    4.3108    0.0000 </r>
       <r>    4.4305    0.0000 </r>
       <r>    4.4704    0.0000 </r>
      </set>
     </set>
    </set>
   </array>
  </eigenvalues>
  <separator name="orbital magnetization" >
   <v name="MAGDIPOLOUT">      0.00000000      0.00000000      0.00000000</v>
  </separator>
  <dos>
   <i name="efermi">      1.04849497 </i>
   <total>
    <array>
     <dimension dim="1">gridpoints</dimension>
     <dimension dim="2">spin</dimension>
     <field>energy</field>
     <field>total</field>
     <field>integrated</field>
     <set>
      <set comment="spin 1">
       <r>   -15.9209     0.0000     0.0000 </r>
       <r>   -15.9102     0.0000     0.0000 </r>
       <r>   -15.8995     0.0000     0.0000 </r>
       <r>   -15.8888     0.0000     0.0000 </r>
       <r>   -15.8781     0.0000     0.0000 </r>
       <r>   -15.8674     0.0000     0.0000 </r>
       <r>   -15.8567     0.0000     0.0000 </r>
       <r>   -15.8460     0.0000     0.0000 </r>
       <r>   -15.8354     0.0000     0.0000 </r>
       <r>   -15.8247     0.0000     0.0000 </r>
       <r>   -15.8140     0.0000     0.0000 </r>
       <r>   -15.8033     0.0000     0.0000 </r>
       <r>   -15.7926     0.0000     0.0000 </r>
       <r>   -15.7819     0.0000     0.0000 </r>
       <r>   -15.7712     0.0000     0.0000 </r>
       <r>   -15.7605     0.0000     0.0000 </r>
       <r>   -15.7498     0.0000     0.0000 </r>
       <r>   -15.7391     0.0000     0.0000 </r>
       <r>   -15.7284     0.0000     0.0000 </r>
       <r>   -15.7177     0.0000     0.0000 </r>
       <r>   -15.7070     0.0000     0.0000 </r>
       <r>   -15.6963     0.0000     0.0000 </r>
       <r>   -15.6856     0.0000     0.0000 </r>
       <r>   -15.6749     0.0000     0.0000 </r>
       <r>   -15.6642     0.0000     0.0000 </r>
       <r>   -15.6535     0.0000     0.0000 </r>
       <r>   -15.6428     0.0000     0.0000 </r>
       <r>   -15.6321     0.0000     0.0000 </r>
       <r>   -15.6214     0.0000     0.0000 </r>
       <r>   -15.6107     0.0000     0.0000 </r>
       <r>   -15.6000     0.0000     0.0000 </r>
       <r>   -15.5893     0.0000     0.0000 </r>
       <r>   -15.5786     0.0000     0.0000 </r>
       <r>   -15.5679     0.0000     0.0000 </r>
       <r>   -15.5573     0.0000     0.0000 </r>
       <r>   -15.5466     0.0000     0.0000 </r>
       <r>   -15.5359     0.0000     0.0000 </r>
       <r>   -15.5252     0.0000     0.0000 </r>
       <r>   -15.5145     0.0000     0.0000 </r>
       <r>   -15.5038     0.0000     0.0000 </r>
       <r>   -15.4931     0.0000     0.0000 </r>
       <r>   -15.4824     0.0000     0.0000 </r>
       <r>   -15.4717     0.0000     0.0000 </r>
       <r>   -15.4610     0.0000     0.0000 </r>
       <r>   -15.4503     0.0000     0.0000 </r>
       <r>   -15.4396     0.0000     0.0000 </r>
       <r>   -15.4289     0.0000     0.0000 </r>
       <r>   -15.4182     0.0000     0.0000 </r>
       <r>   -15.4075     0.0000     0.0000 </r>
       <r>   -15.3968     0.0000     0.0000 </r>
       <r>   -15.3861     0.0000     0.0000 </r>
       <r>   -15.3754     0.0000     0.0000 </r>
       <r>   -15.3647     0.0000     0.0000 </r>
       <r>   -15.3540     0.0000     0.0000 </r>
       <r>   -15.3433     0.0000     0.0000 </r>
       <r>   -15.3326     0.0000     0.0000 </r>
       <r>   -15.3219     0.0000     0.0000 </r>
       <r>   -15.3112     0.0000     0.0000 </r>
       <r>   -15.3005     0.0000     0.0000 </r>
       <r>   -15.2898     0.0000     0.0000 </r>
       <r>   -15.2792     0.0000     0.0000 </r>
       <r>   -15.2685     0.0000     0.0000 </r>
       <r>   -15.2578     0.0000     0.0000 </r>
       <r>   -15.2471     0.0000     0.0000 </r>
       <r>   -15.2364     0.0000     0.0000 </r>
       <r>   -15.2257     0.0000     0.0000 </r>
       <r>   -15.2150     0.0000     0.0000 </r>
       <r>   -15.2043     0.0000     0.0000 </r>
       <r>   -15.1936     0.0000     0.0000 </r>
       <r>   -15.1829     0.0000     0.0000 </r>
       <r>   -15.1722     0.0000     0.0000 </r>
       <r>   -15.1615     0.0000     0.0000 </r>
       <r>   -15.1508     0.0000     0.0000 </r>
       <r>   -15.1401     0.0000     0.0000 </r>
       <r>   -15.1294     0.0000     0.0000 </r>
       <r>   -15.1187     0.0000     0.0000 </r>
       <r>   -15.1080     0.0000     0.0000 </r>
       <r>   -15.0973     0.0000     0.0000 </r>
       <r>   -15.0866     0.0000     0.0000 </r>
       <r>   -15.0759     0.0000     0.0000 </r>
       <r>   -15.0652     0.0000     0.0000 </r>
       <r>   -15.0545     0.0000     0.0000 </r>
       <r>   -15.0438     0.0000     0.0000 </r>
       <r>   -15.0331     0.0000     0.0000 </r>
       <r>   -15.0224     0.0000     0.0000 </r>
       <r>   -15.0117     0.0000     0.0000 </r>
       <r>   -15.0011     0.0000     0.0000 </r>
       <r>   -14.9904     0.0000     0.0000 </r>
       <r>   -14.9797     0.0000     0.0000 </r>
       <r>   -14.9690     0.0080     0.0001 </r>
       <r>   -14.9583     0.3115     0.0034 </r>
       <r>   -14.9476     1.6227     0.0208 </r>
       <r>   -14.9369     1.2537     0.0342 </r>
       <r>   -14.9262     0.1409     0.0357 </r>
       <r>   -14.9155     0.0021     0.0357 </r>
       <r>   -14.9048     0.0000     0.0357 </r>
       <r>   -14.8941     0.0000     0.0357 </r>
       <r>   -14.8834     0.0000     0.0357 </r>
       <r>   -14.8727     0.0000     0.0357 </r>
       <r>   -14.8620     0.0002     0.0357 </r>
       <r>   -14.8513     0.0363     0.0361 </r>
       <r>   -14.8406     0.9718     0.0465 </r>
       <r>   -14.8299     3.5631     0.0846 </r>
       <r>   -14.8192     1.9521     0.1055 </r>
       <r>   -14.8085     0.1529     0.1071 </r>
       <r>   -14.7978     0.0016     0.1071 </r>
       <r>   -14.7871     0.0252     0.1074 </r>
       <r>   -14.7764     0.9585     0.1177 </r>
       <r>   -14.7657     4.8985     0.1701 </r>
       <r>   -14.7550     3.7182     0.2098 </r>
       <r>   -14.7443     0.4106     0.2142 </r>
       <r>   -14.7336     0.0074     0.2143 </r>
       <r>   -14.7230     0.1196     0.2156 </r>
       <r>   -14.7123     1.1764     0.2282 </r>
       <r>   -14.7016     1.6762     0.2461 </r>
       <r>   -14.6909     0.3551     0.2499 </r>
       <r>   -14.6802     0.0113     0.2500 </r>
       <r>   -14.6695     0.1867     0.2520 </r>
       <r>   -14.6588     3.8014     0.2927 </r>
       <r>   -14.6481    10.9519     0.4098 </r>
       <r>   -14.6374     4.7906     0.4611 </r>
       <r>   -14.6267     0.3001     0.4643 </r>
       <r>   -14.6160     0.0469     0.4648 </r>
       <r>   -14.6053     1.1005     0.4765 </r>
       <r>   -14.5946     4.3308     0.5229 </r>
       <r>   -14.5839     5.1689     0.5781 </r>
       <r>   -14.5732     2.4705     0.6046 </r>
       <r>   -14.5625     0.2374     0.6071 </r>
       <r>   -14.5518     0.0071     0.6072 </r>
       <r>   -14.5411     0.2807     0.6102 </r>
       <r>   -14.5304     2.5036     0.6370 </r>
       <r>   -14.5197     3.2499     0.6717 </r>
       <r>   -14.5090     0.7817     0.6801 </r>
       <r>   -14.4983     1.9906     0.7014 </r>
       <r>   -14.4876     3.8058     0.7421 </r>
       <r>   -14.4769     4.5321     0.7906 </r>
       <r>   -14.4662     7.2765     0.8684 </r>
       <r>   -14.4555     2.1947     0.8919 </r>
       <r>   -14.4448     0.0928     0.8929 </r>
       <r>   -14.4342     0.1498     0.8945 </r>
       <r>   -14.4235     2.8010     0.9244 </r>
       <r>   -14.4128     7.3526     1.0031 </r>
       <r>   -14.4021     2.8913     1.0340 </r>
       <r>   -14.3914     0.1595     1.0357 </r>
       <r>   -14.3807     0.0011     1.0357 </r>
       <r>   -14.3700     0.0000     1.0357 </r>
       <r>   -14.3593     0.0000     1.0357 </r>
       <r>   -14.3486     0.0007     1.0357 </r>
       <r>   -14.3379     0.1028     1.0368 </r>
       <r>   -14.3272     2.3667     1.0621 </r>
       <r>   -14.3165     9.5165     1.1639 </r>
       <r>   -14.3058     7.1231     1.2401 </r>
       <r>   -14.2951     0.9184     1.2499 </r>
       <r>   -14.2844     0.5155     1.2555 </r>
       <r>   -14.2737     3.0490     1.2881 </r>
       <r>   -14.2630     2.7497     1.3175 </r>
       <r>   -14.2523     0.3643     1.3214 </r>
       <r>   -14.2416     0.1295     1.3228 </r>
       <r>   -14.2309     1.7729     1.3417 </r>
       <r>   -14.2202     3.6248     1.3805 </r>
       <r>   -14.2095     1.1090     1.3924 </r>
       <r>   -14.1988     0.0469     1.3929 </r>
       <r>   -14.1881     0.0002     1.3929 </r>
       <r>   -14.1774     0.0000     1.3929 </r>
       <r>   -14.1667     0.0080     1.3929 </r>
       <r>   -14.1561     0.5555     1.3989 </r>
       <r>   -14.1454     4.9876     1.4522 </r>
       <r>   -14.1347     6.5514     1.5223 </r>
       <r>   -14.1240     2.6779     1.5510 </r>
       <r>   -14.1133     6.8371     1.6241 </r>
       <r>   -14.1026     7.0559     1.6996 </r>
       <r>   -14.0919     7.7684     1.7826 </r>
       <r>   -14.0812     3.4002     1.8190 </r>
       <r>   -14.0705     0.2262     1.8214 </r>
       <r>   -14.0598     0.2003     1.8236 </r>
       <r>   -14.0491     2.1817     1.8469 </r>
       <r>   -14.0384     3.4541     1.8839 </r>
       <r>   -14.0277     0.8151     1.8926 </r>
       <r>   -14.0170     0.0267     1.8929 </r>
       <r>   -14.0063     0.0813     1.8937 </r>
       <r>   -13.9956     1.4585     1.9093 </r>
       <r>   -13.9849     3.7025     1.9489 </r>
       <r>   -13.9742     2.2097     1.9726 </r>
       <r>   -13.9635     3.5339     2.0104 </r>
       <r>   -13.9528     2.3209     2.0352 </r>
       <r>   -13.9421     2.9927     2.0672 </r>
       <r>   -13.9314     7.3548     2.1459 </r>
       <r>   -13.9207     2.8960     2.1768 </r>
       <r>   -13.9100     0.1607     2.1786 </r>
       <r>   -13.8993     0.1180     2.1798 </r>
       <r>   -13.8886     2.4811     2.2064 </r>
       <r>   -13.8780     7.3199     2.2847 </r>
       <r>   -13.8673     3.2339     2.3193 </r>
       <r>   -13.8566     0.2018     2.3214 </r>
       <r>   -13.8459     0.0016     2.3214 </r>
       <r>   -13.8352     0.0012     2.3214 </r>
       <r>   -13.8245     0.1298     2.3228 </r>
       <r>   -13.8138     1.8310     2.3424 </r>
       <r>   -13.8031     4.6713     2.3924 </r>
       <r>   -13.7924    10.8551     2.5085 </r>
       <r>   -13.7817    15.3108     2.6723 </r>
       <r>   -13.7710     6.2874     2.7395 </r>
       <r>   -13.7603     0.9513     2.7497 </r>
       <r>   -13.7496     0.0297     2.7500 </r>
       <r>   -13.7389     0.0001     2.7500 </r>
       <r>   -13.7282     0.0000     2.7500 </r>
       <r>   -13.7175     0.0000     2.7500 </r>
       <r>   -13.7068     0.0000     2.7500 </r>
       <r>   -13.6961     0.0000     2.7500 </r>
       <r>   -13.6854     0.0000     2.7500 </r>
       <r>   -13.6747     0.0000     2.7500 </r>
       <r>   -13.6640     0.0003     2.7500 </r>
       <r>   -13.6533     0.0717     2.7508 </r>
       <r>   -13.6426     1.9315     2.7714 </r>
       <r>   -13.6319     7.3653     2.8502 </r>
       <r>   -13.6212     7.5726     2.9312 </r>
       <r>   -13.6105     9.8735     3.0368 </r>
       <r>   -13.5999     9.5008     3.1384 </r>
       <r>   -13.5892     3.5660     3.1766 </r>
       <r>   -13.5785     1.7326     3.1951 </r>
       <r>   -13.5678     6.7934     3.2678 </r>
       <r>   -13.5571     4.5666     3.3166 </r>
       <r>   -13.5464     0.4437     3.3214 </r>
       <r>   -13.5357     0.0055     3.3214 </r>
       <r>   -13.5250     0.0000     3.3214 </r>
       <r>   -13.5143     0.0000     3.3214 </r>
       <r>   -13.5036     0.0000     3.3214 </r>
       <r>   -13.4929     0.0000     3.3214 </r>
       <r>   -13.4822     0.0000     3.3214 </r>
       <r>   -13.4715     0.0000     3.3214 </r>
       <r>   -13.4608     0.0000     3.3214 </r>
       <r>   -13.4501     0.0000     3.3214 </r>
       <r>   -13.4394     0.0000     3.3214 </r>
       <r>   -13.4287     0.0000     3.3214 </r>
       <r>   -13.4180     0.0000     3.3214 </r>
       <r>   -13.4073     0.0000     3.3214 </r>
       <r>   -13.3966     0.0000     3.3214 </r>
       <r>   -13.3859     0.0000     3.3214 </r>
       <r>   -13.3752     0.0002     3.3214 </r>
       <r>   -13.3645     0.0453     3.3219 </r>
       <r>   -13.3538     1.0901     3.3336 </r>
       <r>   -13.3431     3.6747     3.3729 </r>
       <r>   -13.3324     3.0212     3.4052 </r>
       <r>   -13.3218     3.7836     3.4457 </r>
       <r>   -13.3111     1.6366     3.4632 </r>
       <r>   -13.3004     0.1442     3.4647 </r>
       <r>   -13.2897     1.4265     3.4800 </r>
       <r>   -13.2790     6.7104     3.5517 </r>
       <r>   -13.2683     4.7014     3.6020 </r>
       <r>   -13.2576     0.8804     3.6115 </r>
       <r>   -13.2469     4.4035     3.6586 </r>
       <r>   -13.2362     6.8896     3.7322 </r>
       <r>   -13.2255     1.6086     3.7495 </r>
       <r>   -13.2148     0.0510     3.7500 </r>
       <r>   -13.2041     0.0008     3.7500 </r>
       <r>   -13.1934     0.1014     3.7511 </r>
       <r>   -13.1827     2.3531     3.7763 </r>
       <r>   -13.1720     9.0993     3.8736 </r>
       <r>   -13.1613     9.5876     3.9761 </r>
       <r>   -13.1506     8.6209     4.0683 </r>
       <r>   -13.1399     3.5716     4.1066 </r>
       <r>   -13.1292     3.2463     4.1413 </r>
       <r>   -13.1185     8.9196     4.2367 </r>
       <r>   -13.1078     6.6081     4.3074 </r>
       <r>   -13.0971     4.4967     4.3555 </r>
       <r>   -13.0864     7.4487     4.4351 </r>
       <r>   -13.0757     4.0918     4.4789 </r>
       <r>   -13.0650     6.8750     4.5524 </r>
       <r>   -13.0543     4.6459     4.6021 </r>
       <r>   -13.0437     0.4632     4.6071 </r>
       <r>   -13.0330     0.0654     4.6078 </r>
       <r>   -13.0223     1.9039     4.6281 </r>
       <r>   -13.0116    11.0352     4.7462 </r>
       <r>   -13.0009    18.2524     4.9414 </r>
       <r>   -12.9902     8.1451     5.0285 </r>
       <r>   -12.9795     0.6639     5.0356 </r>
       <r>   -12.9688     0.0260     5.0359 </r>
       <r>   -12.9581     0.9076     5.0456 </r>
       <r>   -12.9474     5.9219     5.1090 </r>
       <r>   -12.9367     5.6902     5.1698 </r>
       <r>   -12.9260     0.8028     5.1784 </r>
       <r>   -12.9153     0.0149     5.1786 </r>
       <r>   -12.9046     0.0000     5.1786 </r>
       <r>   -12.8939     0.0000     5.1786 </r>
       <r>   -12.8832     0.0000     5.1786 </r>
       <r>   -12.8725     0.0000     5.1786 </r>
       <r>   -12.8618     0.0000     5.1786 </r>
       <r>   -12.8511     0.0000     5.1786 </r>
       <r>   -12.8404     0.0000     5.1786 </r>
       <r>   -12.8297     0.0000     5.1786 </r>
       <r>   -12.8190     0.0000     5.1786 </r>
       <r>   -12.8083     0.0048     5.1786 </r>
       <r>   -12.7976     0.3216     5.1821 </r>
       <r>   -12.7869     3.3852     5.2183 </r>
       <r>   -12.7762     8.8586     5.3130 </r>
       <r>   -12.7655     6.5161     5.3827 </r>
       <r>   -12.7549     0.9308     5.3927 </r>
       <r>   -12.7442     0.2529     5.3954 </r>
       <r>   -12.7335     3.4649     5.4324 </r>
       <r>   -12.7228     7.2712     5.5102 </r>
       <r>   -12.7121     2.2838     5.5346 </r>
       <r>   -12.7014     0.0992     5.5357 </r>
       <r>   -12.6907     0.0007     5.5357 </r>
       <r>   -12.6800     0.0447     5.5362 </r>
       <r>   -12.6693     1.4974     5.5522 </r>
       <r>   -12.6586     6.7855     5.6248 </r>
       <r>   -12.6479     4.5765     5.6737 </r>
       <r>   -12.6372     0.4470     5.6785 </r>
       <r>   -12.6265     0.1643     5.6803 </r>
       <r>   -12.6158     3.5349     5.7181 </r>
       <r>   -12.6051    11.0233     5.8360 </r>
       <r>   -12.5944     6.6235     5.9068 </r>
       <r>   -12.5837     4.0033     5.9497 </r>
       <r>   -12.5730     1.3026     5.9636 </r>
       <r>   -12.5623     0.0643     5.9643 </r>
       <r>   -12.5516     0.0279     5.9646 </r>
       <r>   -12.5409     0.8375     5.9735 </r>
       <r>   -12.5302     3.5175     6.0112 </r>
       <r>   -12.5195     3.9428     6.0533 </r>
       <r>   -12.5088    11.4959     6.1763 </r>
       <r>   -12.4981    16.0208     6.3477 </r>
       <r>   -12.4874     9.3166     6.4473 </r>
       <r>   -12.4768     3.0866     6.4803 </r>
       <r>   -12.4661     1.5821     6.4972 </r>
       <r>   -12.4554     0.2762     6.5002 </r>
       <r>   -12.4447     1.0736     6.5117 </r>
       <r>   -12.4340     6.3374     6.5795 </r>
       <r>   -12.4233     7.8435     6.6634 </r>
       <r>   -12.4126     7.9954     6.7489 </r>
       <r>   -12.4019     3.2402     6.7835 </r>
       <r>   -12.3912     0.2012     6.7857 </r>
       <r>   -12.3805     0.0016     6.7857 </r>
       <r>   -12.3698     0.0138     6.7859 </r>
       <r>   -12.3591     0.7766     6.7942 </r>
       <r>   -12.3484     6.1665     6.8601 </r>
       <r>   -12.3377    11.0006     6.9778 </r>
       <r>   -12.3270     7.4504     7.0575 </r>
       <r>   -12.3163     1.5370     7.0739 </r>
       <r>   -12.3056     3.7222     7.1137 </r>
       <r>   -12.2949     8.1956     7.2014 </r>
       <r>   -12.2842     5.7126     7.2625 </r>
       <r>   -12.2735     2.5863     7.2902 </r>
       <r>   -12.2628     3.2987     7.3254 </r>
       <r>   -12.2521     2.6360     7.3536 </r>
       <r>   -12.2414     0.3220     7.3571 </r>
       <r>   -12.2307     0.0051     7.3571 </r>
       <r>   -12.2200     0.0000     7.3571 </r>
       <r>   -12.2093     0.0000     7.3571 </r>
       <r>   -12.1987     0.0010     7.3572 </r>
       <r>   -12.1880     0.1220     7.3585 </r>
       <r>   -12.1773     1.9199     7.3790 </r>
       <r>   -12.1666     5.1598     7.4342 </r>
       <r>   -12.1559     4.7656     7.4852 </r>
       <r>   -12.1452     3.8135     7.5259 </r>
       <r>   -12.1345     0.8831     7.5354 </r>
       <r>   -12.1238     0.0516     7.5359 </r>
       <r>   -12.1131     1.3259     7.5501 </r>
       <r>   -12.1024    10.6379     7.6639 </r>
       <r>   -12.0917    13.1804     7.8049 </r>
       <r>   -12.0810     7.5552     7.8857 </r>
       <r>   -12.0703     6.2610     7.9527 </r>
       <r>   -12.0596     1.0615     7.9640 </r>
       <r>   -12.0489     0.0241     7.9643 </r>
       <r>   -12.0382     0.0001     7.9643 </r>
       <r>   -12.0275     0.0084     7.9644 </r>
       <r>   -12.0168     0.3330     7.9679 </r>
       <r>   -12.0061     2.2292     7.9918 </r>
       <r>   -11.9954     4.4873     8.0398 </r>
       <r>   -11.9847     3.9682     8.0822 </r>
       <r>   -11.9740     8.7464     8.1758 </r>
       <r>   -11.9633    14.7838     8.3339 </r>
       <r>   -11.9526     8.8275     8.4283 </r>
       <r>   -11.9419     7.1067     8.5043 </r>
       <r>   -11.9312    15.9001     8.6744 </r>
       <r>   -11.9206    22.8265     8.9186 </r>
       <r>   -11.9099    12.4262     9.0515 </r>
       <r>   -11.8992     1.8220     9.0710 </r>
       <r>   -11.8885     0.5145     9.0765 </r>
       <r>   -11.8778     4.6565     9.1263 </r>
       <r>   -11.8671     6.7360     9.1983 </r>
       <r>   -11.8564     1.4495     9.2138 </r>
       <r>   -11.8457     0.0426     9.2143 </r>
       <r>   -11.8350     0.0756     9.2151 </r>
       <r>   -11.8243     1.5793     9.2320 </r>
       <r>   -11.8136     7.4907     9.3121 </r>
       <r>   -11.8029    15.8601     9.4818 </r>
       <r>   -11.7922    15.3236     9.6457 </r>
       <r>   -11.7815     5.8766     9.7085 </r>
       <r>   -11.7708     0.5391     9.7143 </r>
       <r>   -11.7601     0.5491     9.7202 </r>
       <r>   -11.7494     6.3116     9.7877 </r>
       <r>   -11.7387    13.6689     9.9339 </r>
       <r>   -11.7280     7.9848    10.0193 </r>
[...]
        <r>  0.0052  0.0021  0.0052  0.0136  0.0000  0.0000  0.0000  0.0000  0.0000 </r>
        <r>  0.0210  0.0087  0.0212  0.0033  0.0000  0.0000  0.0000  0.0000  0.0000 </r>
        <r>  0.0052  0.0021  0.0052  0.0136  0.0000  0.0000  0.0000  0.0000  0.0000 </r>
        <r>  0.0210  0.0087  0.0212  0.0033  0.0000  0.0000  0.0000  0.0000  0.0000 </r>
        <r>  0.0040  0.0019  0.0038  0.0098  0.0000  0.0000  0.0000  0.0000  0.0000 </r>
        <r>  0.0164  0.0078  0.0153  0.0024  0.0000  0.0000  0.0000  0.0000  0.0000 </r>
        <r>  0.0043  0.0023  0.0058  0.0157  0.0000  0.0000  0.0000  0.0000  0.0000 </r>
        <r>  0.0176  0.0093  0.0234  0.0039  0.0000  0.0000  0.0000  0.0000  0.0000 </r>
       </set>
       <set comment="band 25">
        <r>  0.0087  0.0164  0.0082  0.0041  0.0000  0.0000  0.0000  0.0000  0.0000 </r>
        <r>  0.0057  0.0107  0.0054  0.0062  0.0000  0.0000  0.0000  0.0000  0.0000 </r>
        <r>  0.0001  0.0193  0.0025  0.0017  0.0000  0.0000  0.0000  0.0000  0.0000 </r>
        <r>  0.0000  0.0126  0.0016  0.0026  0.0000  0.0000  0.0000  0.0000  0.0000 </r>
        <r>  0.0049  0.0434  0.0097  0.0054  0.0000  0.0000  0.0000  0.0000  0.0000 </r>
        <r>  0.0032  0.0284  0.0063  0.0083  0.0000  0.0000  0.0000  0.0000  0.0000 </r>
        <r>  0.0049  0.0434  0.0097  0.0054  0.0000  0.0000  0.0000  0.0000  0.0000 </r>
        <r>  0.0032  0.0284  0.0063  0.0083  0.0000  0.0000  0.0000  0.0000  0.0000 </r>
        <r>  0.0001  0.0193  0.0025  0.0017  0.0000  0.0000  0.0000  0.0000  0.0000 </r>
        <r>  0.0000  0.0126  0.0016  0.0026  0.0000  0.0000  0.0000  0.0000  0.0000 </r>
        <r>  0.0087  0.0164  0.0082  0.0041  0.0000  0.0000  0.0000  0.0000  0.0000 </r>
        <r>  0.0057  0.0107  0.0054  0.0062  0.0000  0.0000  0.0000  0.0000  0.0000 </r>
       </set>
       <set comment="band 26">
        <r>  0.0057  0.0107  0.0054  0.0062  0.0000  0.0000  0.0000  0.0000  0.0000 </r>
        <r>  0.0087  0.0164  0.0082  0.0041  0.0000  0.0000  0.0000  0.0000  0.0000 </r>
        <r>  0.0000  0.0126  0.0016  0.0026  0.0000  0.0000  0.0000  0.0000  0.0000 </r>
        <r>  0.0001  0.0193  0.0025  0.0017  0.0000  0.0000  0.0000  0.0000  0.0000 </r>
        <r>  0.0032  0.0284  0.0063  0.0083  0.0000  0.0000  0.0000  0.0000  0.0000 </r>
        <r>  0.0049  0.0434  0.0097  0.0054  0.0000  0.0000  0.0000  0.0000  0.0000 </r>
        <r>  0.0032  0.0284  0.0063  0.0083  0.0000  0.0000  0.0000  0.0000  0.0000 </r>
        <r>  0.0049  0.0434  0.0097  0.0054  0.0000  0.0000  0.0000  0.0000  0.0000 </r>
        <r>  0.0000  0.0126  0.0016  0.0026  0.0000  0.0000  0.0000  0.0000  0.0000 </r>
        <r>  0.0001  0.0193  0.0025  0.0017  0.0000  0.0000  0.0000  0.0000  0.0000 </r>
        <r>  0.0057  0.0107  0.0054  0.0062  0.0000  0.0000  0.0000  0.0000  0.0000 </r>
        <r>  0.0087  0.0164  0.0082  0.0041  0.0000  0.0000  0.0000  0.0000  0.0000 </r>
       </set>
       <set comment="band 27">
        <r>  0.0111  0.0720  0.0112  0.0009  0.0000  0.0000  0.0000  0.0000  0.0000 </r>
        <r>  0.0010  0.0064  0.0010  0.0096  0.0000  0.0000  0.0000  0.0000  0.0000 </r>
        <r>  0.0088  0.0698  0.0095  0.0007  0.0000  0.0000  0.0000  0.0000  0.0000 </r>
        <r>  0.0008  0.0062  0.0009  0.0082  0.0000  0.0000  0.0000  0.0000  0.0000 </r>
        <r>  0.0094  0.0012  0.0013  0.0000  0.0000  0.0000  0.0000  0.0000  0.0000 </r>
        <r>  0.0008  0.0001  0.0001  0.0005  0.0000  0.0000  0.0000  0.0000  0.0000 </r>
        <r>  0.0094  0.0012  0.0013  0.0000  0.0000  0.0000  0.0000  0.0000  0.0000 </r>
        <r>  0.0008  0.0001  0.0001  0.0005  0.0000  0.0000  0.0000  0.0000  0.0000 </r>
        <r>  0.0088  0.0698  0.0095  0.0007  0.0000  0.0000  0.0000  0.0000  0.0000 </r>
        <r>  0.0008  0.0062  0.0009  0.0082  0.0000  0.0000  0.0000  0.0000  0.0000 </r>
        <r>  0.0111  0.0720  0.0112  0.0009  0.0000  0.0000  0.0000  0.0000  0.0000 </r>
        <r>  0.0010  0.0064  0.0010  0.0096  0.0000  0.0000  0.0000  0.0000  0.0000 </r>
       </set>
       <set comment="band 28">
        <r>  0.0010  0.0064  0.0010  0.0096  0.0000  0.0000  0.0000  0.0000  0.0000 </r>
        <r>  0.0111  0.0720  0.0112  0.0009  0.0000  0.0000  0.0000  0.0000  0.0000 </r>
        <r>  0.0008  0.0062  0.0009  0.0082  0.0000  0.0000  0.0000  0.0000  0.0000 </r>
        <r>  0.0088  0.0698  0.0095  0.0007  0.0000  0.0000  0.0000  0.0000  0.0000 </r>
        <r>  0.0008  0.0001  0.0001  0.0005  0.0000  0.0000  0.0000  0.0000  0.0000 </r>
        <r>  0.0094  0.0012  0.0013  0.0000  0.0000  0.0000  0.0000  0.0000  0.0000 </r>
        <r>  0.0008  0.0001  0.0001  0.0005  0.0000  0.0000  0.0000  0.0000  0.0000 </r>
        <r>  0.0094  0.0012  0.0013  0.0000  0.0000  0.0000  0.0000  0.0000  0.0000 </r>
        <r>  0.0008  0.0062  0.0009  0.0082  0.0000  0.0000  0.0000  0.0000  0.0000 </r>
        <r>  0.0088  0.0698  0.0095  0.0007  0.0000  0.0000  0.0000  0.0000  0.0000 </r>
        <r>  0.0010  0.0064  0.0010  0.0096  0.0000  0.0000  0.0000  0.0000  0.0000 </r>
        <r>  0.0111  0.0720  0.0112  0.0009  0.0000  0.0000  0.0000  0.0000  0.0000 </r>
       </set>
       <set comment="band 29">
        <r>  0.0014  0.0409  0.0024  0.0012  0.0000  0.0000  0.0000  0.0000  0.0000 </r>
        <r>  0.0007  0.0210  0.0012  0.0023  0.0000  0.0000  0.0000  0.0000  0.0000 </r>
        <r>  0.0129  0.0258  0.0053  0.0021  0.0000  0.0000  0.0000  0.0000  0.0000 </r>
        <r>  0.0066  0.0132  0.0027  0.0042  0.0000  0.0000  0.0000  0.0000  0.0000 </r>
        <r>  0.0096  0.0538  0.0051  0.0023  0.0000  0.0000  0.0000  0.0000  0.0000 </r>
        <r>  0.0049  0.0276  0.0026  0.0045  0.0000  0.0000  0.0000  0.0000  0.0000 </r>
        <r>  0.0096  0.0538  0.0051  0.0023  0.0000  0.0000  0.0000  0.0000  0.0000 </r>
        <r>  0.0049  0.0276  0.0026  0.0045  0.0000  0.0000  0.0000  0.0000  0.0000 </r>
        <r>  0.0129  0.0258  0.0053  0.0021  0.0000  0.0000  0.0000  0.0000  0.0000 </r>
        <r>  0.0066  0.0132  0.0027  0.0042  0.0000  0.0000  0.0000  0.0000  0.0000 </r>
        <r>  0.0014  0.0409  0.0024  0.0012  0.0000  0.0000  0.0000  0.0000  0.0000 </r>
        <r>  0.0007  0.0210  0.0012  0.0023  0.0000  0.0000  0.0000  0.0000  0.0000 </r>
       </set>
       <set comment="band 30">
        <r>  0.0007  0.0210  0.0012  0.0023  0.0000  0.0000  0.0000  0.0000  0.0000 </r>
        <r>  0.0014  0.0409  0.0024  0.0012  0.0000  0.0000  0.0000  0.0000  0.0000 </r>
        <r>  0.0066  0.0132  0.0027  0.0042  0.0000  0.0000  0.0000  0.0000  0.0000 </r>
        <r>  0.0129  0.0258  0.0053  0.0021  0.0000  0.0000  0.0000  0.0000  0.0000 </r>
        <r>  0.0049  0.0276  0.0026  0.0045  0.0000  0.0000  0.0000  0.0000  0.0000 </r>
        <r>  0.0096  0.0538  0.0051  0.0023  0.0000  0.0000  0.0000  0.0000  0.0000 </r>
        <r>  0.0049  0.0276  0.0026  0.0045  0.0000  0.0000  0.0000  0.0000  0.0000 </r>
        <r>  0.0096  0.0538  0.0051  0.0023  0.0000  0.0000  0.0000  0.0000  0.0000 </r>
        <r>  0.0066  0.0132  0.0027  0.0042  0.0000  0.0000  0.0000  0.0000  0.0000 </r>
        <r>  0.0129  0.0258  0.0053  0.0021  0.0000  0.0000  0.0000  0.0000  0.0000 </r>
        <r>  0.0007  0.0210  0.0012  0.0023  0.0000  0.0000  0.0000  0.0000  0.0000 </r>
        <r>  0.0014  0.0409  0.0024  0.0012  0.0000  0.0000  0.0000  0.0000  0.0000 </r>
       </set>
       <set comment="band 31">
        <r>  0.0019  0.0048  0.0015  0.0017  0.0000  0.0000  0.0000  0.0000  0.0000 </r>
        <r>  0.0028  0.0072  0.0022  0.0011  0.0000  0.0000  0.0000  0.0000  0.0000 </r>
        <r>  0.0005  0.0096  0.0001  0.0001  0.0000  0.0000  0.0000  0.0000  0.0000 </r>
        <r>  0.0007  0.0144  0.0002  0.0000  0.0000  0.0000  0.0000  0.0000  0.0000 </r>
        <r>  0.0024  0.0172  0.0005  0.0012  0.0000  0.0000  0.0000  0.0000  0.0000 </r>
        <r>  0.0037  0.0259  0.0007  0.0008  0.0000  0.0000  0.0000  0.0000  0.0000 </r>
        <r>  0.0024  0.0172  0.0005  0.0012  0.0000  0.0000  0.0000  0.0000  0.0000 </r>
        <r>  0.0037  0.0259  0.0007  0.0008  0.0000  0.0000  0.0000  0.0000  0.0000 </r>
        <r>  0.0005  0.0096  0.0001  0.0001  0.0000  0.0000  0.0000  0.0000  0.0000 </r>
        <r>  0.0007  0.0144  0.0002  0.0000  0.0000  0.0000  0.0000  0.0000  0.0000 </r>
        <r>  0.0019  0.0048  0.0015  0.0017  0.0000  0.0000  0.0000  0.0000  0.0000 </r>
        <r>  0.0028  0.0072  0.0022  0.0011  0.0000  0.0000  0.0000  0.0000  0.0000 </r>
       </set>
       <set comment="band 32">
        <r>  0.0028  0.0072  0.0022  0.0011  0.0000  0.0000  0.0000  0.0000  0.0000 </r>
        <r>  0.0019  0.0048  0.0015  0.0017  0.0000  0.0000  0.0000  0.0000  0.0000 </r>
        <r>  0.0007  0.0144  0.0002  0.0000  0.0000  0.0000  0.0000  0.0000  0.0000 </r>
        <r>  0.0005  0.0096  0.0001  0.0001  0.0000  0.0000  0.0000  0.0000  0.0000 </r>
        <r>  0.0037  0.0259  0.0007  0.0008  0.0000  0.0000  0.0000  0.0000  0.0000 </r>
        <r>  0.0024  0.0172  0.0005  0.0012  0.0000  0.0000  0.0000  0.0000  0.0000 </r>
        <r>  0.0037  0.0259  0.0007  0.0008  0.0000  0.0000  0.0000  0.0000  0.0000 </r>
        <r>  0.0024  0.0172  0.0005  0.0012  0.0000  0.0000  0.0000  0.0000  0.0000 </r>
        <r>  0.0007  0.0144  0.0002  0.0000  0.0000  0.0000  0.0000  0.0000  0.0000 </r>
        <r>  0.0005  0.0096  0.0001  0.0001  0.0000  0.0000  0.0000  0.0000  0.0000 </r>
        <r>  0.0028  0.0072  0.0022  0.0011  0.0000  0.0000  0.0000  0.0000  0.0000 </r>
        <r>  0.0019  0.0048  0.0015  0.0017  0.0000  0.0000  0.0000  0.0000  0.0000 </r>
       </set>
       <set comment="band 33">
        <r>  0.0074  0.0284  0.0018  0.0015  0.0000  0.0000  0.0000  0.0000  0.0000 </r>
        <r>  0.0044  0.0168  0.0011  0.0026  0.0000  0.0000  0.0000  0.0000  0.0000 </r>
        <r>  0.0061  0.0318  0.0008  0.0010  0.0000  0.0000  0.0000  0.0000  0.0000 </r>
        <r>  0.0036  0.0188  0.0005  0.0017  0.0000  0.0000  0.0000  0.0000  0.0000 </r>
        <r>  0.0018  0.0035  0.0039  0.0012  0.0000  0.0000  0.0000  0.0000  0.0000 </r>
        <r>  0.0011  0.0021  0.0023  0.0020  0.0000  0.0000  0.0000  0.0000  0.0000 </r>
        <r>  0.0018  0.0035  0.0039  0.0012  0.0000  0.0000  0.0000  0.0000  0.0000 </r>
        <r>  0.0011  0.0021  0.0023  0.0020  0.0000  0.0000  0.0000  0.0000  0.0000 </r>
        <r>  0.0061  0.0318  0.0008  0.0010  0.0000  0.0000  0.0000  0.0000  0.0000 </r>
        <r>  0.0036  0.0188  0.0005  0.0017  0.0000  0.0000  0.0000  0.0000  0.0000 </r>
        <r>  0.0074  0.0284  0.0018  0.0015  0.0000  0.0000  0.0000  0.0000  0.0000 </r>
        <r>  0.0044  0.0168  0.0011  0.0026  0.0000  0.0000  0.0000  0.0000  0.0000 </r>
       </set>
       <set comment="band 34">
        <r>  0.0044  0.0168  0.0011  0.0026  0.0000  0.0000  0.0000  0.0000  0.0000 </r>
        <r>  0.0074  0.0284  0.0018  0.0015  0.0000  0.0000  0.0000  0.0000  0.0000 </r>
        <r>  0.0036  0.0188  0.0005  0.0017  0.0000  0.0000  0.0000  0.0000  0.0000 </r>
        <r>  0.0061  0.0318  0.0008  0.0010  0.0000  0.0000  0.0000  0.0000  0.0000 </r>
        <r>  0.0011  0.0021  0.0023  0.0020  0.0000  0.0000  0.0000  0.0000  0.0000 </r>
        <r>  0.0018  0.0035  0.0039  0.0012  0.0000  0.0000  0.0000  0.0000  0.0000 </r>
        <r>  0.0011  0.0021  0.0023  0.0020  0.0000  0.0000  0.0000  0.0000  0.0000 </r>
        <r>  0.0018  0.0035  0.0039  0.0012  0.0000  0.0000  0.0000  0.0000  0.0000 </r>
        <r>  0.0036  0.0188  0.0005  0.0017  0.0000  0.0000  0.0000  0.0000  0.0000 </r>
        <r>  0.0061  0.0318  0.0008  0.0010  0.0000  0.0000  0.0000  0.0000  0.0000 </r>
        <r>  0.0044  0.0168  0.0011  0.0026  0.0000  0.0000  0.0000  0.0000  0.0000 </r>
        <r>  0.0074  0.0284  0.0018  0.0015  0.0000  0.0000  0.0000  0.0000  0.0000 </r>
       </set>
       <set comment="band 35">
        <r>  0.0017  0.0093  0.0001  0.0010  0.0000  0.0000  0.0000  0.0000  0.0000 </r>
        <r>  0.0069  0.0381  0.0004  0.0002  0.0000  0.0000  0.0000  0.0000  0.0000 </r>
        <r>  0.0032  0.0058  0.0010  0.0045  0.0000  0.0000  0.0000  0.0000  0.0000 </r>
        <r>  0.0131  0.0239  0.0041  0.0011  0.0000  0.0000  0.0000  0.0000  0.0000 </r>
        <r>  0.0034  0.0107  0.0005  0.0035  0.0000  0.0000  0.0000  0.0000  0.0000 </r>
        <r>  0.0138  0.0438  0.0022  0.0009  0.0000  0.0000  0.0000  0.0000  0.0000 </r>
        <r>  0.0034  0.0107  0.0005  0.0035  0.0000  0.0000  0.0000  0.0000  0.0000 </r>
        <r>  0.0138  0.0438  0.0022  0.0009  0.0000  0.0000  0.0000  0.0000  0.0000 </r>
        <r>  0.0032  0.0058  0.0010  0.0045  0.0000  0.0000  0.0000  0.0000  0.0000 </r>
        <r>  0.0131  0.0239  0.0041  0.0011  0.0000  0.0000  0.0000  0.0000  0.0000 </r>
        <r>  0.0017  0.0093  0.0001  0.0010  0.0000  0.0000  0.0000  0.0000  0.0000 </r>
        <r>  0.0069  0.0381  0.0004  0.0002  0.0000  0.0000  0.0000  0.0000  0.0000 </r>
       </set>
       <set comment="band 36">
        <r>  0.0069  0.0381  0.0004  0.0002  0.0000  0.0000  0.0000  0.0000  0.0000 </r>
        <r>  0.0017  0.0093  0.0001  0.0010  0.0000  0.0000  0.0000  0.0000  0.0000 </r>
        <r>  0.0131  0.0239  0.0041  0.0011  0.0000  0.0000  0.0000  0.0000  0.0000 </r>
        <r>  0.0032  0.0058  0.0010  0.0045  0.0000  0.0000  0.0000  0.0000  0.0000 </r>
        <r>  0.0138  0.0438  0.0022  0.0009  0.0000  0.0000  0.0000  0.0000  0.0000 </r>
        <r>  0.0034  0.0107  0.0005  0.0035  0.0000  0.0000  0.0000  0.0000  0.0000 </r>
        <r>  0.0138  0.0438  0.0022  0.0009  0.0000  0.0000  0.0000  0.0000  0.0000 </r>
        <r>  0.0034  0.0107  0.0005  0.0035  0.0000  0.0000  0.0000  0.0000  0.0000 </r>
        <r>  0.0131  0.0239  0.0041  0.0011  0.0000  0.0000  0.0000  0.0000  0.0000 </r>
        <r>  0.0032  0.0058  0.0010  0.0045  0.0000  0.0000  0.0000  0.0000  0.0000 </r>
        <r>  0.0069  0.0381  0.0004  0.0002  0.0000  0.0000  0.0000  0.0000  0.0000 </r>
        <r>  0.0017  0.0093  0.0001  0.0010  0.0000  0.0000  0.0000  0.0000  0.0000 </r>
       </set>
       <set comment="band 37">
        <r>  0.0001  0.0002  0.0008  0.0047  0.0000  0.0000  0.0000  0.0000  0.0000 </r>
        <r>  0.0016  0.0019  0.0093  0.0004  0.0000  0.0000  0.0000  0.0000  0.0000 </r>
        <r>  0.0001  0.0004  0.0005  0.0072  0.0000  0.0000  0.0000  0.0000  0.0000 </r>
        <r>  0.0016  0.0042  0.0065  0.0006  0.0000  0.0000  0.0000  0.0000  0.0000 </r>
        <r>  0.0005  0.0003  0.0082  0.0437  0.0000  0.0000  0.0000  0.0000  0.0000 </r>
        <r>  0.0055  0.0029  0.0912  0.0039  0.0000  0.0000  0.0000  0.0000  0.0000 </r>
        <r>  0.0005  0.0003  0.0082  0.0437  0.0000  0.0000  0.0000  0.0000  0.0000 </r>
        <r>  0.0055  0.0029  0.0912  0.0039  0.0000  0.0000  0.0000  0.0000  0.0000 </r>
        <r>  0.0001  0.0004  0.0006  0.0073  0.0000  0.0000  0.0000  0.0000  0.0000 </r>
        <r>  0.0016  0.0042  0.0064  0.0006  0.0000  0.0000  0.0000  0.0000  0.0000 </r>
        <r>  0.0001  0.0002  0.0008  0.0047  0.0000  0.0000  0.0000  0.0000  0.0000 </r>
        <r>  0.0017  0.0020  0.0092  0.0004  0.0000  0.0000  0.0000  0.0000  0.0000 </r>
       </set>
       <set comment="band 38">
        <r>  0.0018  0.0020  0.0108  0.0005  0.0000  0.0000  0.0000  0.0000  0.0000 </r>
        <r>  0.0002  0.0002  0.0009  0.0054  0.0000  0.0000  0.0000  0.0000  0.0000 </r>
        <r>  0.0017  0.0043  0.0079  0.0008  0.0000  0.0000  0.0000  0.0000  0.0000 </r>
        <r>  0.0001  0.0004  0.0006  0.0081  0.0000  0.0000  0.0000  0.0000  0.0000 </r>
        <r>  0.0055  0.0030  0.0907  0.0041  0.0000  0.0000  0.0000  0.0000  0.0000 </r>
        <r>  0.0005  0.0003  0.0084  0.0438  0.0000  0.0000  0.0000  0.0000  0.0000 </r>
        <r>  0.0055  0.0028  0.0915  0.0041  0.0000  0.0000  0.0000  0.0000  0.0000 </r>
        <r>  0.0005  0.0003  0.0084  0.0437  0.0000  0.0000  0.0000  0.0000  0.0000 </r>
        <r>  0.0014  0.0041  0.0051  0.0006  0.0000  0.0000  0.0000  0.0000  0.0000 </r>
        <r>  0.0001  0.0004  0.0005  0.0065  0.0000  0.0000  0.0000  0.0000  0.0000 </r>
        <r>  0.0016  0.0019  0.0079  0.0004  0.0000  0.0000  0.0000  0.0000  0.0000 </r>
        <r>  0.0001  0.0002  0.0007  0.0041  0.0000  0.0000  0.0000  0.0000  0.0000 </r>
       </set>
       <set comment="band 39">
        <r>  0.0018  0.0004  0.0339  0.0107  0.0000  0.0000  0.0000  0.0000  0.0000 </r>
        <r>  0.0013  0.0003  0.0240  0.0151  0.0000  0.0000  0.0000  0.0000  0.0000 </r>
        <r>  0.0023  0.0005  0.0406  0.0125  0.0000  0.0000  0.0000  0.0000  0.0000 </r>
        <r>  0.0016  0.0003  0.0287  0.0176  0.0000  0.0000  0.0000  0.0000  0.0000 </r>
        <r>  0.0003  0.0001  0.0041  0.0018  0.0000  0.0000  0.0000  0.0000  0.0000 </r>
        <r>  0.0002  0.0001  0.0028  0.0026  0.0000  0.0000  0.0000  0.0000  0.0000 </r>
        <r>  0.0003  0.0001  0.0039  0.0018  0.0000  0.0000  0.0000  0.0000  0.0000 </r>
        <r>  0.0002  0.0001  0.0027  0.0026  0.0000  0.0000  0.0000  0.0000  0.0000 </r>
        <r>  0.0022  0.0005  0.0381  0.0117  0.0000  0.0000  0.0000  0.0000  0.0000 </r>
        <r>  0.0015  0.0003  0.0269  0.0166  0.0000  0.0000  0.0000  0.0000  0.0000 </r>
        <r>  0.0017  0.0004  0.0319  0.0100  0.0000  0.0000  0.0000  0.0000  0.0000 </r>
        <r>  0.0012  0.0003  0.0225  0.0142  0.0000  0.0000  0.0000  0.0000  0.0000 </r>
       </set>
       <set comment="band 40">
        <r>  0.0008  0.0005  0.0114  0.0016  0.0000  0.0000  0.0000  0.0000  0.0000 </r>
        <r>  0.0001  0.0001  0.0033  0.0049  0.0000  0.0000  0.0000  0.0000  0.0000 </r>
        <r>  0.0008  0.0001  0.0129  0.0014  0.0000  0.0000  0.0000  0.0000  0.0000 </r>
        <r>  0.0002  0.0002  0.0048  0.0063  0.0000  0.0000  0.0000  0.0000  0.0000 </r>
        <r>  0.0003  0.0003  0.0102  0.0019  0.0000  0.0000  0.0000  0.0000  0.0000 </r>
        <r>  0.0003  0.0005  0.0032  0.0042  0.0000  0.0000  0.0000  0.0000  0.0000 </r>
        <r>  0.0002  0.0003  0.0117  0.0015  0.0000  0.0000  0.0000  0.0000  0.0000 </r>
        <r>  0.0001  0.0007  0.0069  0.0040  0.0000  0.0000  0.0000  0.0000  0.0000 </r>
        <r>  0.0019  0.0002  0.0406  0.0289  0.0000  0.0000  0.0000  0.0000  0.0000 </r>
        <r>  0.0030  0.0004  0.0723  0.0177  0.0000  0.0000  0.0000  0.0000  0.0000 </r>
        <r>  0.0020  0.0007  0.0341  0.0264  0.0000  0.0000  0.0000  0.0000  0.0000 </r>
        <r>  0.0029  0.0005  0.0579  0.0154  0.0000  0.0000  0.0000  0.0000  0.0000 </r>
       </set>
      </set>
     </set>
    </set>
   </array>
  </projected>
 </calculation>
 <structure name="finalpos" >
  <crystal>
   <varray name="basis" >
    <v>       3.34288600       0.00000000       0.00000000 </v>
    <v>       0.00000000      32.60240900       0.00000000 </v>
    <v>       0.00000000       0.00000000       4.37483100 </v>
   </varray>
   <i name="volume">    476.79592902 </i>
   <varray name="rec_basis" >
    <v>       0.29914272       0.00000000       0.00000000 </v>
    <v>       0.00000000       0.03067258       0.00000000 </v>
    <v>       0.00000000       0.00000000       0.22858026 </v>
   </varray>
  </crystal>
  <varray name="positions" >
   <v>       0.00000000       0.30672600       0.91892400 </v>
   <v>       0.50000000       0.30672600       0.58107600 </v>
   <v>       0.00000000       0.37246700       0.08107600 </v>
   <v>       0.50000000       0.37246700       0.41892400 </v>
   <v>       0.00000000       0.46712900       0.91892400 </v>
   <v>       0.50000000       0.46712900       0.58107600 </v>
   <v>       0.00000000       0.53287100       0.08107600 </v>
   <v>       0.50000000       0.53287100       0.41892400 </v>
   <v>       0.00000000       0.62753300       0.91892400 </v>
   <v>       0.50000000       0.62753300       0.58107600 </v>
   <v>       0.00000000       0.69327400       0.08107600 </v>
   <v>       0.50000000       0.69327400       0.41892400 </v>
  </varray>
 </structure>
</modeling>
