  12  12   1   0
  0.3973299E+02  0.3342886E-09  0.3260241E-08  0.4374831E-09  0.5000000E-15
  1.000000000000000E-004
  CAR 
 Generic Input                           
      5.86696067    -15.94569366 2000      0.69511649      1.00000000
    -15.946  0.0000E+00  0.0000E+00
    -15.935  0.0000E+00  0.0000E+00
    -15.924  0.0000E+00  0.0000E+00
    -15.913  0.0000E+00  0.0000E+00
    -15.902  0.0000E+00  0.0000E+00
    -15.891  0.0000E+00  0.0000E+00
    -15.880  0.0000E+00  0.0000E+00
    -15.869  0.0000E+00  0.0000E+00
    -15.858  0.0000E+00  0.0000E+00
    -15.847  0.0000E+00  0.0000E+00
    -15.837  0.0000E+00  0.0000E+00
    -15.826  0.0000E+00  0.0000E+00
    -15.815  0.0000E+00  0.0000E+00
    -15.804  0.0000E+00  0.0000E+00
    -15.793  0.0000E+00  0.0000E+00
    -15.782  0.0000E+00  0.0000E+00
    -15.771  0.0000E+00  0.0000E+00
    -15.760  0.0000E+00  0.0000E+00
    -15.749  0.0000E+00  0.0000E+00
    -15.738  0.0000E+00  0.0000E+00
    -15.727  0.0000E+00  0.0000E+00
    -15.717  0.0000E+00  0.0000E+00
    -15.706  0.0000E+00  0.0000E+00
    -15.695  0.0000E+00  0.0000E+00
    -15.684  0.0000E+00  0.0000E+00
    -15.673  0.0000E+00  0.0000E+00
    -15.662  0.0000E+00  0.0000E+00
    -15.651  0.0000E+00  0.0000E+00
    -15.640  0.0000E+00  0.0000E+00
    -15.629  0.0000E+00  0.0000E+00
    -15.618  0.0000E+00  0.0000E+00
    -15.607  0.0000E+00  0.0000E+00
    -15.597  0.0000E+00  0.0000E+00
    -15.586  0.0000E+00  0.0000E+00
    -15.575  0.0000E+00  0.0000E+00
    -15.564  0.0000E+00  0.0000E+00
    -15.553  0.0000E+00  0.0000E+00
    -15.542  0.0000E+00  0.0000E+00
    -15.531  0.0000E+00  0.0000E+00
    -15.520  0.0000E+00  0.0000E+00
    -15.509  0.0000E+00  0.0000E+00
    -15.498  0.0000E+00  0.0000E+00
    -15.487  0.0000E+00  0.0000E+00
    -15.476  0.0000E+00  0.0000E+00
    -15.466  0.0000E+00  0.0000E+00
    -15.455  0.0000E+00  0.0000E+00
    -15.444  0.0000E+00  0.0000E+00
    -15.433  0.0000E+00  0.0000E+00
    -15.422  0.0000E+00  0.0000E+00
    -15.411  0.0000E+00  0.0000E+00
    -15.400  0.0000E+00  0.0000E+00
    -15.389  0.0000E+00  0.0000E+00
    -15.378  0.0000E+00  0.0000E+00
    -15.367  0.0000E+00  0.0000E+00
    -15.356  0.0000E+00  0.0000E+00
    -15.346  0.0000E+00  0.0000E+00
    -15.335  0.0000E+00  0.0000E+00
    -15.324  0.0000E+00  0.0000E+00
    -15.313  0.0000E+00  0.0000E+00
    -15.302  0.0000E+00  0.0000E+00
    -15.291  0.0000E+00  0.0000E+00
    -15.280  0.0000E+00  0.0000E+00
    -15.269  0.0000E+00  0.0000E+00
    -15.258  0.0000E+00  0.0000E+00
    -15.247  0.0000E+00  0.0000E+00
    -15.236  0.0000E+00  0.0000E+00
    -15.226  0.0000E+00  0.0000E+00
    -15.215  0.0000E+00  0.0000E+00
    -15.204  0.0000E+00  0.0000E+00
    -15.193  0.0000E+00  0.0000E+00
    -15.182  0.0000E+00  0.0000E+00
    -15.171  0.0000E+00  0.0000E+00
    -15.160  0.0000E+00  0.0000E+00
    -15.149  0.0000E+00  0.0000E+00
    -15.138  0.0000E+00  0.0000E+00
    -15.127  0.0000E+00  0.0000E+00
    -15.116  0.0000E+00  0.0000E+00
    -15.105  0.0000E+00  0.0000E+00
    -15.095  0.0000E+00  0.0000E+00
    -15.084  0.0000E+00  0.0000E+00
    -15.073  0.0000E+00  0.0000E+00
    -15.062  0.0000E+00  0.0000E+00
    -15.051  0.0000E+00  0.0000E+00
    -15.040  0.0000E+00  0.0000E+00
    -15.029  0.0000E+00  0.0000E+00
    -15.018  0.0000E+00  0.0000E+00
    -15.007  0.1170E-12  0.1277E-14
    -14.996  0.4751E-08  0.5184E-10
    -14.985  0.1892E-04  0.2065E-06
    -14.975  0.7673E-02  0.8394E-04
    -14.964  0.3410E+00  0.3805E-02
    -14.953  0.1879E+01  0.2431E-01
    -14.942  0.1439E+01  0.4001E-01
    -14.931  0.1499E+00  0.4165E-01
    -14.920  0.1865E-02  0.4167E-01
    -14.909  0.2480E-05  0.4167E-01
    -14.898  0.3314E-09  0.4167E-01
    -14.887  0.4239E-14  0.4167E-01
    -14.876  0.0000E+00  0.4167E-01
    -14.865  0.0000E+00  0.4167E-01
    -14.855  0.2276E-11  0.4167E-01
    -14.844  0.5840E-07  0.4167E-01
    -14.833  0.1477E-03  0.4167E-01
    -14.822  0.3847E-01  0.4209E-01
    -14.811  0.1121E+01  0.5432E-01
    -14.800  0.4164E+01  0.9975E-01
    -14.789  0.2441E+01  0.1264E+00
    -14.778  0.3202E+01  0.1613E+00
    -14.767  0.5975E+01  0.2265E+00
    -14.756  0.2047E+01  0.2489E+00
    -14.745  0.1041E+00  0.2500E+00
    -14.734  0.6437E-03  0.2500E+00
    -14.724  0.4310E-06  0.2500E+00
    -14.713  0.2473E-04  0.2500E+00
    -14.702  0.9210E-02  0.2501E+00
    -14.691  0.3773E+00  0.2542E+00
    -14.680  0.1927E+01  0.2752E+00
    -14.669  0.1371E+01  0.2902E+00
    -14.658  0.1322E+00  0.2917E+00
    -14.647  0.1325E-01  0.2918E+00
    -14.636  0.8588E+00  0.3012E+00
    -14.625  0.8194E+01  0.3906E+00
    -14.614  0.1146E+02  0.5156E+00
    -14.604  0.3457E+01  0.5533E+00
    -14.593  0.4212E+01  0.5993E+00
    -14.582  0.2199E+01  0.6233E+00
    -14.571  0.1553E+00  0.6250E+00
    -14.560  0.1286E-02  0.6250E+00
    -14.549  0.5307E-02  0.6251E+00
    -14.538  0.3700E+00  0.6291E+00
    -14.527  0.3109E+01  0.6630E+00
    -14.516  0.3678E+01  0.7032E+00
    -14.505  0.2407E+01  0.7294E+00
    -14.494  0.4264E+01  0.7759E+00
    -14.484  0.1383E+01  0.7910E+00
    -14.473  0.5874E-01  0.7917E+00
    -14.462  0.1330E+00  0.7931E+00
    -14.451  0.2956E+01  0.8254E+00
    -14.440  0.8535E+01  0.9185E+00
    -14.429  0.3464E+01  0.9563E+00
    -14.418  0.1842E+00  0.9583E+00
    -14.407  0.1141E-02  0.9583E+00
    -14.396  0.9307E-02  0.9584E+00
    -14.385  0.5136E+00  0.9640E+00
    -14.374  0.3466E+01  0.1002E+01
    -14.363  0.3348E+01  0.1038E+01
    -14.353  0.3216E+01  0.1073E+01
    -14.342  0.8518E+01  0.1166E+01
    -14.331  0.3634E+01  0.1206E+01
    -14.320  0.2039E+00  0.1208E+01
    -14.309  0.1315E-02  0.1208E+01
    -14.298  0.8858E-06  0.1208E+01
    -14.287  0.5929E-10  0.1208E+01
    -14.276  0.4529E-09  0.1208E+01
    -14.265  0.3698E-05  0.1208E+01
    -14.254  0.3029E-02  0.1208E+01
    -14.243  0.2644E+00  0.1211E+01
    -14.233  0.2743E+01  0.1241E+01
    -14.222  0.3857E+01  0.1283E+01
    -14.211  0.1136E+01  0.1296E+01
    -14.200  0.5625E+01  0.1357E+01
    -14.189  0.1224E+02  0.1491E+01
    -14.178  0.4422E+01  0.1539E+01
    -14.167  0.2540E+00  0.1542E+01
    -14.156  0.2000E-02  0.1542E+01
    -14.145  0.1835E-05  0.1542E+01
    -14.134  0.2020E-09  0.1542E+01
    -14.123  0.4646E-06  0.1542E+01
    -14.113  0.8224E-03  0.1542E+01
    -14.102  0.1529E+00  0.1543E+01
    -14.091  0.3377E+01  0.1580E+01
    -14.080  0.1117E+02  0.1702E+01
    -14.069  0.7498E+01  0.1784E+01
    -14.058  0.3841E+01  0.1826E+01
    -14.047  0.3801E+01  0.1867E+01
    -14.036  0.7125E+00  0.1875E+01
    -14.025  0.9515E+00  0.1885E+01
    -14.014  0.6730E+01  0.1959E+01
    -14.003  0.6668E+01  0.2032E+01
    -13.992  0.9093E+00  0.2042E+01
    -13.982  0.4267E-01  0.2042E+01
    -13.971  0.9403E+00  0.2052E+01
    -13.960  0.4041E+01  0.2096E+01
    -13.949  0.2430E+01  0.2123E+01
    -13.938  0.1965E+00  0.2125E+01
    -13.927  0.9696E-01  0.2126E+01
    -13.916  0.2719E+01  0.2156E+01
    -13.905  0.1236E+02  0.2291E+01
    -13.894  0.1247E+02  0.2427E+01
    -13.883  0.2801E+01  0.2457E+01
    -13.872  0.1005E+00  0.2458E+01
    -13.862  0.4311E-03  0.2458E+01
    -13.851  0.8336E-06  0.2458E+01
    -13.840  0.1038E-02  0.2458E+01
    -13.829  0.1762E+00  0.2460E+01
    -13.818  0.3523E+01  0.2499E+01
    -13.807  0.1065E+02  0.2615E+01
    -13.796  0.7214E+01  0.2694E+01
    -13.785  0.1300E+01  0.2708E+01
    -13.774  0.4188E-01  0.2708E+01
    -13.763  0.1639E-03  0.2708E+01
    -13.752  0.6694E-07  0.2708E+01
    -13.742  0.2701E-11  0.2708E+01
    -13.731  0.0000E+00  0.2708E+01
    -13.720  0.5435E-10  0.2708E+01
    -13.709  0.8275E-06  0.2708E+01
    -13.698  0.1251E-02  0.2708E+01
    -13.687  0.1975E+00  0.2711E+01
    -13.676  0.3580E+01  0.2750E+01
    -13.665  0.8520E+01  0.2843E+01
    -13.654  0.2852E+01  0.2874E+01
    -13.643  0.3528E+00  0.2878E+01
    -13.632  0.3839E+01  0.2919E+01
    -13.621  0.8472E+01  0.3012E+01
    -13.611  0.2628E+01  0.3041E+01
    -13.600  0.1049E+00  0.3042E+01
    -13.589  0.4718E-03  0.3042E+01
    -13.578  0.2195E-06  0.3042E+01
    -13.567  0.1009E-10  0.3042E+01
    -13.556  0.0000E+00  0.3042E+01
    -13.545  0.1942E-12  0.3042E+01
    -13.534  0.9363E-08  0.3042E+01
    -13.523  0.4427E-04  0.3042E+01
    -13.512  0.2123E-01  0.3042E+01
    -13.501  0.1108E+01  0.3054E+01
    -13.491  0.7091E+01  0.3131E+01
    -13.480  0.6281E+01  0.3200E+01
    -13.469  0.7636E+00  0.3208E+01
    -13.458  0.2021E+00  0.3210E+01
    -13.447  0.2403E+01  0.3237E+01
    -13.436  0.4055E+01  0.3281E+01
    -13.425  0.9578E+00  0.3291E+01
    -13.414  0.2860E-01  0.3292E+01
    -13.403  0.1832E-01  0.3292E+01
    -13.392  0.1201E+01  0.3305E+01
    -13.381  0.9583E+01  0.3410E+01
    -13.371  0.1050E+02  0.3524E+01
    -13.360  0.2050E+01  0.3546E+01
    -13.349  0.3382E+01  0.3583E+01
    -13.338  0.3347E+01  0.3620E+01
    -13.327  0.4598E+00  0.3625E+01
    -13.316  0.7686E-02  0.3625E+01
    -13.305  0.3369E-04  0.3625E+01
    -13.294  0.1213E-01  0.3625E+01
    -13.283  0.8008E+00  0.3634E+01
    -13.272  0.6390E+01  0.3704E+01
    -13.261  0.6994E+01  0.3780E+01
    -13.250  0.1058E+01  0.3791E+01
    -13.240  0.2270E-01  0.3792E+01
    -13.229  0.3963E+00  0.3796E+01
    -13.218  0.6502E+01  0.3867E+01
    -13.207  0.1636E+02  0.4045E+01
    -13.196  0.6881E+01  0.4121E+01
    -13.185  0.1496E+01  0.4137E+01
    -13.174  0.4126E+01  0.4182E+01
    -13.163  0.2258E+01  0.4207E+01
    -13.152  0.1651E+00  0.4208E+01
    -13.141  0.3946E-02  0.4208E+01
    -13.130  0.3091E+00  0.4212E+01
    -13.120  0.4388E+01  0.4260E+01
    -13.109  0.8306E+01  0.4350E+01
    -13.098  0.2668E+01  0.4379E+01
    -13.087  0.3437E+01  0.4417E+01
    -13.076  0.3337E+01  0.4453E+01
    -13.065  0.5165E+00  0.4459E+01
    -13.054  0.1990E+01  0.4481E+01
    -13.043  0.1026E+02  0.4593E+01
    -13.032  0.9236E+01  0.4693E+01
    -13.021  0.1344E+01  0.4708E+01
    -13.010  0.2625E-01  0.4708E+01
    -13.000  0.5817E-04  0.4708E+01
    -12.989  0.2126E-06  0.4708E+01
    -12.978  0.4394E-03  0.4708E+01
    -12.967  0.1001E+00  0.4709E+01
    -12.956  0.2566E+01  0.4737E+01
    -12.945  0.8454E+01  0.4830E+01
    -12.934  0.3913E+01  0.4872E+01
    -12.923  0.2393E+00  0.4875E+01
    -12.912  0.1690E-02  0.4875E+01
    -12.901  0.4468E-03  0.4875E+01
    -12.890  0.1010E+00  0.4876E+01
    -12.879  0.2578E+01  0.4904E+01
    -12.869  0.8457E+01  0.4997E+01
    -12.858  0.3926E+01  0.5039E+01
    -12.847  0.1524E+01  0.5056E+01
    -12.836  0.7402E+01  0.5137E+01
    -12.825  0.5908E+01  0.5201E+01
    -12.814  0.6430E+00  0.5208E+01
    -12.803  0.6291E-01  0.5209E+01
    -12.792  0.1368E+01  0.5224E+01
    -12.781  0.5561E+01  0.5285E+01
    -12.770  0.9337E+01  0.5386E+01
    -12.759  0.5956E+01  0.5451E+01
    -12.749  0.6253E+00  0.5458E+01
    -12.738  0.1115E-01  0.5458E+01
    -12.727  0.3553E+00  0.5462E+01
    -12.716  0.4661E+01  0.5513E+01
    -12.705  0.8180E+01  0.5602E+01
    -12.694  0.2011E+01  0.5624E+01
    -12.683  0.9465E-01  0.5625E+01
    -12.672  0.1658E+01  0.5643E+01
    -12.661  0.1082E+02  0.5761E+01
    -12.650  0.1202E+02  0.5893E+01
    -12.639  0.5127E+01  0.5949E+01
    -12.629  0.1116E+01  0.5961E+01
    -12.618  0.3998E+01  0.6004E+01
    -12.607  0.8437E+01  0.6096E+01
    -12.596  0.2516E+01  0.6124E+01
    -12.585  0.1004E+00  0.6125E+01
    -12.574  0.4011E+00  0.6129E+01
    -12.563  0.5252E+01  0.6187E+01
    -12.552  0.1028E+02  0.6299E+01
    -12.541  0.3039E+01  0.6332E+01
    -12.530  0.1211E+00  0.6333E+01
    -12.519  0.5603E-03  0.6333E+01
    -12.508  0.1704E-03  0.6333E+01
    -12.498  0.6643E-01  0.6334E+01
    -12.487  0.2849E+01  0.6365E+01
    -12.476  0.1520E+02  0.6531E+01
    -12.465  0.1128E+02  0.6654E+01
    -12.454  0.1138E+01  0.6667E+01
    -12.443  0.1368E-01  0.6667E+01
    -12.432  0.1757E-04  0.6667E+01
    -12.421  0.2341E-08  0.6667E+01
    -12.410  0.9265E-06  0.6667E+01
    -12.399  0.1223E-02  0.6667E+01
    -12.388  0.1859E+00  0.6669E+01
    -12.378  0.3799E+01  0.6710E+01
    -12.367  0.1210E+02  0.6842E+01
    -12.356  0.6399E+01  0.6912E+01
    -12.345  0.2688E+01  0.6941E+01
    -12.334  0.8439E+01  0.7033E+01
    -12.323  0.6503E+01  0.7104E+01
    -12.312  0.4494E+01  0.7153E+01
    -12.301  0.1171E+01  0.7166E+01
    -12.290  0.4172E-01  0.7167E+01
    -12.279  0.1669E-03  0.7167E+01
    -12.268  0.6879E-07  0.7167E+01
    -12.258  0.2798E-11  0.7167E+01
    -12.247  0.0000E+00  0.7167E+01
    -12.236  0.2826E-11  0.7167E+01
    -12.225  0.6004E-07  0.7167E+01
    -12.214  0.1261E-03  0.7167E+01
    -12.203  0.2741E-01  0.7167E+01
    -12.192  0.6816E+00  0.7174E+01
    -12.181  0.2659E+01  0.7203E+01
    -12.170  0.4456E+01  0.7252E+01
    -12.159  0.3243E+01  0.7287E+01
    -12.148  0.1205E+01  0.7301E+01
    -12.137  0.6502E+01  0.7372E+01
    -12.127  0.9215E+01  0.7472E+01
    -12.116  0.9693E+01  0.7578E+01
    -12.105  0.7324E+01  0.7658E+01
    -12.094  0.4139E+01  0.7703E+01
    -12.083  0.3815E+01  0.7745E+01
    -12.072  0.8561E+01  0.7838E+01
    -12.061  0.3233E+01  0.7873E+01
    -12.050  0.2945E+00  0.7876E+01
    -12.039  0.2983E+01  0.7909E+01
    -12.028  0.8540E+01  0.8002E+01
    -12.017  0.3726E+01  0.8043E+01
    -12.007  0.3817E+01  0.8085E+01
    -11.996  0.1115E+02  0.8206E+01
    -11.985  0.1508E+02  0.8371E+01
    -11.974  0.1183E+02  0.8500E+01
    -11.963  0.3657E+01  0.8540E+01
    -11.952  0.6330E+00  0.8547E+01
    -11.941  0.5514E+01  0.8607E+01
    -11.930  0.1267E+02  0.8745E+01
    -11.919  0.1670E+02  0.8927E+01
    -11.908  0.1580E+02  0.9100E+01
    -11.897  0.5714E+01  0.9162E+01
    -11.887  0.4270E+00  0.9167E+01
    -11.876  0.2280E+00  0.9169E+01
    -11.865  0.3796E+01  0.9211E+01
    -11.854  0.8482E+01  0.9303E+01
    -11.843  0.2747E+01  0.9333E+01
    -11.832  0.2455E+01  0.9360E+01
    -11.821  0.8887E+01  0.9457E+01
    -11.810  0.7680E+01  0.9541E+01
    -11.799  0.3496E+01  0.9579E+01
    -11.788  0.4102E+00  0.9583E+01
    -11.777  0.6272E-02  0.9583E+01
    -11.766  0.3823E-02  0.9583E+01
    -11.756  0.3044E+00  0.9587E+01
    -11.745  0.2995E+01  0.9619E+01
    -11.734  0.5566E+01  0.9680E+01
    -11.723  0.4930E+01  0.9734E+01
    -11.712  0.1477E+01  0.9750E+01
    -11.701  0.2563E+01  0.9778E+01
    -11.690  0.1401E+02  0.9931E+01
    -11.679  0.1227E+02  0.1006E+02
    -11.668  0.1664E+01  0.1008E+02
    -11.657  0.3059E-01  0.1008E+02
    -11.646  0.6585E-04  0.1008E+02
    -11.636  0.3291E-03  0.1008E+02
    -11.625  0.1003E+00  0.1008E+02
    -11.614  0.3496E+01  0.1012E+02
    -11.603  0.1579E+02  0.1029E+02
    -11.592  0.1023E+02  0.1041E+02
    -11.581  0.9404E+00  0.1042E+02
    -11.570  0.7965E+00  0.1043E+02
    -11.559  0.3892E+01  0.1047E+02
    -11.548  0.2686E+01  0.1050E+02
    -11.537  0.2506E+00  0.1050E+02
    -11.526  0.2774E-02  0.1050E+02
    -11.516  0.3942E-05  0.1050E+02
    -11.505  0.1084E-02  0.1050E+02
    -11.494  0.1841E+00  0.1050E+02
    -11.483  0.3765E+01  0.1054E+02
    -11.472  0.1157E+02  0.1067E+02
    -11.461  0.6639E+01  0.1074E+02
    -11.450  0.8365E+00  0.1075E+02
    -11.439  0.1750E+01  0.1077E+02
    -11.428  0.4268E+01  0.1082E+02
    -11.417  0.1604E+01  0.1083E+02
    -11.406  0.2990E+01  0.1087E+02
    -11.395  0.8558E+01  0.1096E+02
    -11.385  0.4766E+01  0.1101E+02
    -11.374  0.7556E+01  0.1109E+02
    -11.363  0.5951E+01  0.1116E+02
    -11.352  0.6550E+00  0.1117E+02
    -11.341  0.8643E-02  0.1117E+02
    -11.330  0.1222E-04  0.1117E+02
    -11.319  0.1738E-08  0.1117E+02
    -11.308  0.2374E-13  0.1117E+02
    -11.297  0.0000E+00  0.1117E+02
    -11.286  0.2713E-13  0.1117E+02
    -11.275  0.1915E-08  0.1117E+02
    -11.265  0.1316E-04  0.1117E+02
    -11.254  0.9108E-02  0.1117E+02
    -11.243  0.6758E+00  0.1117E+02
    -11.232  0.6018E+01  0.1124E+02
    -11.221  0.7313E+01  0.1132E+02
    -11.210  0.1233E+01  0.1133E+02
    -11.199  0.5144E-01  0.1133E+02
    -11.188  0.9072E+00  0.1134E+02
    -11.177  0.4013E+01  0.1139E+02
    -11.166  0.2483E+01  0.1141E+02
    -11.155  0.2064E+00  0.1142E+02
    -11.145  0.2021E-02  0.1142E+02
    -11.134  0.2095E-05  0.1142E+02
    -11.123  0.2174E-09  0.1142E+02
    -11.112  0.1696E-14  0.1142E+02
    -11.101  0.0000E+00  0.1142E+02
    -11.090  0.0000E+00  0.1142E+02
    -11.079  0.0000E+00  0.1142E+02
    -11.068  0.0000E+00  0.1142E+02
    -11.057  0.0000E+00  0.1142E+02
    -11.046  0.1865E-13  0.1142E+02
    -11.035  0.1416E-08  0.1142E+02
    -11.024  0.1044E-04  0.1142E+02
    -11.014  0.7732E-02  0.1142E+02
    -11.003  0.6127E+00  0.1142E+02
    -10.992  0.5804E+01  0.1149E+02
    -10.981  0.7480E+01  0.1157E+02
    -10.970  0.1340E+01  0.1158E+02
    -10.959  0.2973E-01  0.1158E+02
    -10.948  0.7224E-04  0.1158E+02
    -10.937  0.1787E-07  0.1158E+02
    -10.926  0.2780E-08  0.1158E+02
    -10.915  0.1488E-04  0.1158E+02
    -10.904  0.8066E-02  0.1158E+02
    -10.894  0.4771E+00  0.1159E+02
    -10.883  0.3811E+01  0.1163E+02
    -10.872  0.8394E+01  0.1172E+02
    -10.861  0.8416E+01  0.1181E+02
    -10.850  0.1756E+01  0.1183E+02
    -10.839  0.4831E-01  0.1183E+02
    -10.828  0.2129E-01  0.1183E+02
    -10.817  0.8140E+00  0.1184E+02
    -10.806  0.3922E+01  0.1189E+02
    -10.795  0.2637E+01  0.1191E+02
    -10.784  0.2395E+00  0.1192E+02
    -10.774  0.2574E-02  0.1192E+02
    -10.763  0.2941E-05  0.1192E+02
    -10.752  0.3368E-09  0.1192E+02
    -10.741  0.3392E-14  0.1192E+02
    -10.730  0.0000E+00  0.1192E+02
    -10.719  0.0000E+00  0.1192E+02
    -10.708  0.4239E-14  0.1192E+02
    -10.697  0.3741E-09  0.1192E+02
    -10.686  0.3190E-05  0.1192E+02
    -10.675  0.2727E-02  0.1192E+02
    -10.664  0.2481E+00  0.1192E+02
    -10.653  0.2675E+01  0.1195E+02
    -10.643  0.3899E+01  0.1199E+02
    -10.632  0.7926E+00  0.1200E+02
    -10.621  0.2014E-01  0.1200E+02
    -10.610  0.5899E-04  0.1200E+02
    -10.599  0.2358E-02  0.1200E+02
    -10.588  0.2270E+00  0.1200E+02
    -10.577  0.2581E+01  0.1203E+02
    -10.566  0.3957E+01  0.1207E+02
    -10.555  0.8471E+00  0.1208E+02
    -10.544  0.2275E-01  0.1208E+02
    -10.533  0.4963E-03  0.1208E+02
    -10.523  0.7744E-01  0.1208E+02
    -10.512  0.1594E+01  0.1210E+02
    -10.501  0.4274E+01  0.1215E+02
    -10.490  0.1612E+01  0.1217E+02
    -10.479  0.7923E-01  0.1217E+02
    -10.468  0.4442E-03  0.1217E+02
    -10.457  0.2592E-06  0.1217E+02
    -10.446  0.2834E-06  0.1217E+02
    -10.435  0.5699E-03  0.1217E+02
    -10.424  0.1187E+00  0.1217E+02
    -10.413  0.2796E+01  0.1220E+02
    -10.403  0.8511E+01  0.1229E+02
    -10.392  0.3641E+01  0.1233E+02
    -10.381  0.2048E+00  0.1233E+02
    -10.370  0.1324E-02  0.1233E+02
    -10.359  0.8939E-06  0.1233E+02
    -10.348  0.5998E-10  0.1233E+02
    -10.337  0.0000E+00  0.1233E+02
    -10.326  0.0000E+00  0.1233E+02
    -10.315  0.0000E+00  0.1233E+02
    -10.304  0.1323E-12  0.1233E+02
    -10.293  0.6019E-08  0.1233E+02
    -10.282  0.2678E-04  0.1233E+02
    -10.272  0.1211E-01  0.1233E+02
    -10.261  0.5968E+00  0.1234E+02
    -10.250  0.3623E+01  0.1238E+02
    -10.239  0.3049E+01  0.1241E+02
    -10.228  0.3505E+00  0.1242E+02
    -10.217  0.4844E-02  0.1242E+02
    -10.206  0.7184E-05  0.1242E+02
    -10.195  0.1073E-08  0.1242E+02
    -10.184  0.1865E-13  0.1242E+02
    -10.173  0.3467E-09  0.1242E+02
    -10.162  0.3516E-05  0.1242E+02
    -10.152  0.3563E-02  0.1242E+02
    -10.141  0.3820E+00  0.1242E+02
    -10.130  0.4807E+01  0.1247E+02
    -10.119  0.8110E+01  0.1256E+02
    -10.108  0.1915E+01  0.1258E+02
    -10.097  0.5711E-01  0.1258E+02
    -10.086  0.1892E-03  0.1258E+02
    -10.075  0.6424E-07  0.1258E+02
    -10.064  0.2147E-11  0.1258E+02
    -10.053  0.0000E+00  0.1258E+02
    -10.042  0.0000E+00  0.1258E+02
    -10.032  0.0000E+00  0.1258E+02
    -10.021  0.0000E+00  0.1258E+02
    -10.010  0.0000E+00  0.1258E+02
     -9.999  0.0000E+00  0.1258E+02
     -9.988  0.1696E-14  0.1258E+02
     -9.977  0.1849E-09  0.1258E+02
     -9.966  0.2155E-05  0.1258E+02
     -9.955  0.2506E-02  0.1258E+02
     -9.944  0.3068E+00  0.1259E+02
     -9.933  0.4374E+01  0.1263E+02
     -9.922  0.8304E+01  0.1273E+02
     -9.911  0.2211E+01  0.1275E+02
     -9.901  0.7498E-01  0.1275E+02
     -9.890  0.2842E-03  0.1275E+02
     -9.879  0.1045E-04  0.1275E+02
     -9.868  0.7681E-02  0.1275E+02
     -9.857  0.6103E+00  0.1276E+02
     -9.846  0.5795E+01  0.1282E+02
     -9.835  0.7548E+01  0.1290E+02
     -9.824  0.2770E+01  0.1293E+02
     -9.813  0.4290E+01  0.1298E+02
     -9.802  0.1790E+01  0.1300E+02
     -9.791  0.9870E-01  0.1300E+02
     -9.781  0.6249E-03  0.1300E+02
     -9.770  0.3435E-05  0.1300E+02
     -9.759  0.3197E-02  0.1300E+02
     -9.748  0.3571E+00  0.1300E+02
     -9.737  0.4671E+01  0.1305E+02
     -9.726  0.8176E+01  0.1314E+02
     -9.715  0.2004E+01  0.1317E+02
     -9.704  0.6221E-01  0.1317E+02
     -9.693  0.2149E-03  0.1317E+02
     -9.682  0.7655E-07  0.1317E+02
     -9.671  0.3541E-05  0.1317E+02
     -9.661  0.3582E-02  0.1317E+02
     -9.650  0.3832E+00  0.1317E+02
     -9.639  0.4813E+01  0.1322E+02
     -9.628  0.8196E+01  0.1331E+02
     -9.617  0.3626E+01  0.1335E+02
     -9.606  0.4326E+01  0.1340E+02
     -9.595  0.1495E+01  0.1342E+02
     -9.584  0.7163E-01  0.1342E+02
     -9.573  0.4014E+00  0.1342E+02
     -9.562  0.5298E+01  0.1348E+02
     -9.551  0.1134E+02  0.1360E+02
     -9.540  0.5306E+01  0.1366E+02
     -9.530  0.6660E+00  0.1367E+02
     -9.519  0.1933E+01  0.1369E+02
     -9.508  0.5027E+01  0.1374E+02
     -9.497  0.7680E+01  0.1383E+02
     -9.486  0.7074E+01  0.1390E+02
     -9.475  0.1071E+01  0.1392E+02
     -9.464  0.2002E-01  0.1392E+02
     -9.453  0.4068E-04  0.1392E+02
     -9.442  0.1889E-04  0.1392E+02
     -9.431  0.1309E-01  0.1392E+02
     -9.420  0.9813E+00  0.1393E+02
     -9.410  0.8889E+01  0.1402E+02
     -9.399  0.1106E+02  0.1415E+02
     -9.388  0.1964E+01  0.1417E+02
     -9.377  0.1583E+01  0.1418E+02
     -9.366  0.7751E+01  0.1427E+02
     -9.355  0.5763E+01  0.1433E+02
     -9.344  0.4120E+01  0.1438E+02
     -9.333  0.7416E+01  0.1446E+02
     -9.322  0.3772E+01  0.1450E+02
     -9.311  0.3831E+01  0.1454E+02
     -9.300  0.8536E+01  0.1463E+02
     -9.290  0.3087E+01  0.1467E+02
     -9.279  0.3401E+01  0.1470E+02
     -9.268  0.8548E+01  0.1480E+02
     -9.257  0.3145E+01  0.1483E+02
     -9.246  0.4570E+00  0.1484E+02
     -9.235  0.2905E+01  0.1487E+02
     -9.224  0.3968E+01  0.1491E+02
     -9.213  0.6118E+01  0.1498E+02
     -9.202  0.1830E+02  0.1518E+02
     -9.191  0.1962E+02  0.1539E+02
     -9.180  0.1501E+02  0.1556E+02
     -9.169  0.2460E+01  0.1558E+02
     -9.159  0.5208E+00  0.1559E+02
     -9.148  0.3369E+01  0.1563E+02
     -9.137  0.3330E+01  0.1566E+02
     -9.126  0.5199E+00  0.1567E+02
     -9.115  0.2092E+01  0.1569E+02
     -9.104  0.8230E+01  0.1578E+02
     -9.093  0.4553E+01  0.1583E+02
     -9.082  0.3365E+00  0.1583E+02
     -9.071  0.3025E-02  0.1583E+02
     -9.060  0.4247E-01  0.1583E+02
     -9.049  0.1722E+01  0.1585E+02
     -9.039  0.1040E+02  0.1597E+02
     -9.028  0.1374E+02  0.1612E+02
     -9.017  0.4399E+01  0.1616E+02
     -9.006  0.2451E+00  0.1617E+02
     -8.995  0.2491E-01  0.1617E+02
     -8.984  0.1162E+01  0.1618E+02
     -8.973  0.7182E+01  0.1626E+02
     -8.962  0.6169E+01  0.1633E+02
     -8.951  0.7274E+00  0.1633E+02
     -8.940  0.7670E-01  0.1633E+02
     -8.929  0.2074E+01  0.1636E+02
     -8.919  0.8223E+01  0.1645E+02
     -8.908  0.4569E+01  0.1650E+02
     -8.897  0.3392E+00  0.1650E+02
     -8.886  0.3021E-02  0.1650E+02
     -8.875  0.3351E-01  0.1650E+02
     -8.864  0.1741E+01  0.1652E+02
     -8.853  0.1367E+02  0.1667E+02
     -8.842  0.2093E+02  0.1690E+02
     -8.831  0.8395E+01  0.1699E+02
     -8.820  0.1176E+01  0.1700E+02
     -8.809  0.3124E+01  0.1704E+02
     -8.798  0.8565E+01  0.1713E+02
     -8.788  0.4101E+01  0.1717E+02
     -8.777  0.4061E+01  0.1722E+02
     -8.766  0.2685E+01  0.1725E+02
     -8.755  0.2505E+00  0.1725E+02
     -8.744  0.7371E-01  0.1725E+02
     -8.733  0.2272E+01  0.1728E+02
     -8.722  0.1187E+02  0.1741E+02
     -8.711  0.1711E+02  0.1759E+02
     -8.700  0.7792E+01  0.1768E+02
     -8.689  0.5945E+01  0.1774E+02
     -8.678  0.1000E+02  0.1785E+02
     -8.668  0.9132E+01  0.1795E+02
     -8.657  0.6159E+01  0.1802E+02
     -8.646  0.7209E+01  0.1810E+02
     -8.635  0.2485E+01  0.1812E+02
     -8.624  0.8095E+00  0.1813E+02
     -8.613  0.5984E+01  0.1820E+02
     -8.602  0.8135E+01  0.1829E+02
     -8.591  0.5146E+01  0.1834E+02
     -8.580  0.3243E+01  0.1838E+02
     -8.569  0.8380E+01  0.1847E+02
     -8.558  0.1763E+02  0.1866E+02
     -8.548  0.1022E+02  0.1877E+02
     -8.537  0.9703E+01  0.1888E+02
     -8.526  0.3285E+01  0.1891E+02
     -8.515  0.1743E+00  0.1892E+02
     -8.504  0.4965E+00  0.1892E+02
     -8.493  0.2040E+01  0.1894E+02
     -8.482  0.1176E+01  0.1896E+02
     -8.471  0.9075E-01  0.1896E+02
     -8.460  0.8205E-03  0.1896E+02
     -8.449  0.7837E-06  0.1896E+02
     -8.438  0.7478E-10  0.1896E+02
     -8.427  0.8479E-15  0.1896E+02
     -8.417  0.0000E+00  0.1896E+02
     -8.406  0.0000E+00  0.1896E+02
     -8.395  0.0000E+00  0.1896E+02
     -8.384  0.0000E+00  0.1896E+02
     -8.373  0.0000E+00  0.1896E+02
     -8.362  0.4239E-15  0.1896E+02
     -8.351  0.6521E-10  0.1896E+02
     -8.340  0.8209E-06  0.1896E+02
     -8.329  0.1029E-02  0.1896E+02
     -8.318  0.1355E+00  0.1896E+02
     -8.307  0.2070E+01  0.1898E+02
     -8.297  0.4194E+01  0.1903E+02
     -8.286  0.1193E+01  0.1904E+02
     -8.275  0.4339E-01  0.1904E+02
     -8.264  0.1793E-03  0.1904E+02
     -8.253  0.2523E-02  0.1904E+02
     -8.242  0.3083E+00  0.1905E+02
     -8.231  0.4467E+01  0.1909E+02
     -8.220  0.1147E+02  0.1922E+02
     -8.209  0.1760E+02  0.1941E+02
     -8.198  0.1089E+02  0.1953E+02
     -8.187  0.1070E+01  0.1954E+02
     -8.177  0.1302E+00  0.1954E+02
     -8.166  0.2778E+01  0.1957E+02
     -8.155  0.8507E+01  0.1967E+02
     -8.144  0.3663E+01  0.1971E+02
     -8.133  0.2073E+00  0.1971E+02
     -8.122  0.1350E-02  0.1971E+02
     -8.111  0.9182E-06  0.1971E+02
     -8.100  0.6371E-10  0.1971E+02
     -8.089  0.4521E-07  0.1971E+02
     -8.078  0.1221E-03  0.1971E+02
     -8.067  0.3388E-01  0.1971E+02
     -8.056  0.1048E+01  0.1972E+02
     -8.046  0.4119E+01  0.1977E+02
     -8.035  0.2268E+01  0.1979E+02
     -8.024  0.1679E+00  0.1979E+02
     -8.013  0.1946E+00  0.1979E+02
     -8.002  0.3578E+01  0.1983E+02
     -7.991  0.9616E+01  0.1994E+02
     -7.980  0.7029E+01  0.2001E+02
     -7.969  0.2337E+01  0.2004E+02
     -7.958  0.4667E+00  0.2005E+02
     -7.947  0.4391E+01  0.2009E+02
     -7.936  0.8319E+01  0.2018E+02
     -7.926  0.3288E+01  0.2022E+02
     -7.915  0.7128E+01  0.2030E+02
     -7.904  0.6324E+01  0.2037E+02
     -7.893  0.7769E+00  0.2037E+02
     -7.882  0.1152E-01  0.2037E+02
     -7.871  0.1840E-04  0.2037E+02
     -7.860  0.2962E-08  0.2037E+02
     -7.849  0.4833E-13  0.2037E+02
     -7.838  0.1313E-09  0.2038E+02
     -7.827  0.1650E-05  0.2038E+02
     -7.816  0.2066E-02  0.2038E+02
     -7.806  0.2717E+00  0.2038E+02
     -7.795  0.4145E+01  0.2042E+02
     -7.784  0.8387E+01  0.2051E+02
     -7.773  0.2431E+01  0.2054E+02
     -7.762  0.1351E+01  0.2056E+02
     -7.751  0.4221E+01  0.2060E+02
     -7.740  0.1979E+01  0.2062E+02
     -7.729  0.1227E+00  0.2062E+02
     -7.718  0.8797E-03  0.2062E+02
     -7.707  0.7248E-03  0.2063E+02
     -7.696  0.1517E+00  0.2063E+02
     -7.685  0.3958E+01  0.2067E+02
     -7.675  0.1581E+02  0.2084E+02
     -7.664  0.1337E+02  0.2099E+02
     -7.653  0.4414E+01  0.2104E+02
     -7.642  0.4799E+00  0.2104E+02
     -7.631  0.7851E-02  0.2104E+02
     -7.620  0.1427E-04  0.2104E+02
     -7.609  0.2629E-08  0.2104E+02
     -7.598  0.4748E-13  0.2104E+02
     -7.587  0.6969E-11  0.2104E+02
     -7.576  0.1637E-06  0.2104E+02
     -7.565  0.3798E-03  0.2104E+02
     -7.555  0.9088E-01  0.2104E+02
     -7.544  0.2443E+01  0.2107E+02
     -7.533  0.8411E+01  0.2116E+02
     -7.522  0.4067E+01  0.2121E+02
     -7.511  0.2605E+00  0.2121E+02
     -7.500  0.1932E-02  0.2121E+02
     -7.489  0.1504E-05  0.2121E+02
     -7.478  0.1166E-09  0.2121E+02
     -7.467  0.0000E+00  0.2121E+02
     -7.456  0.0000E+00  0.2121E+02
     -7.445  0.1891E-12  0.2121E+02
     -7.435  0.8007E-08  0.2121E+02
     -7.424  0.3325E-04  0.2121E+02
     -7.413  0.1404E-01  0.2121E+02
     -7.402  0.6489E+00  0.2122E+02
     -7.391  0.3709E+01  0.2126E+02
     -7.380  0.2943E+01  0.2129E+02
     -7.369  0.3182E+00  0.2129E+02
     -7.358  0.4118E-02  0.2129E+02
     -7.347  0.6177E-05  0.2129E+02
     -7.336  0.6885E-03  0.2129E+02
     -7.325  0.1050E+00  0.2129E+02
     -7.314  0.1842E+01  0.2131E+02
     -7.304  0.4304E+01  0.2136E+02
     -7.293  0.3199E+01  0.2139E+02
     -7.282  0.8089E+01  0.2148E+02
     -7.271  0.4956E+01  0.2154E+02
     -7.260  0.4168E+00  0.2154E+02
     -7.249  0.5166E+00  0.2155E+02
     -7.238  0.5419E+01  0.2161E+02
     -7.227  0.7752E+01  0.2169E+02
     -7.216  0.1546E+01  0.2171E+02
     -7.205  0.3849E-01  0.2171E+02
     -7.194  0.1055E-03  0.2171E+02
     -7.184  0.2951E-07  0.2171E+02
     -7.173  0.8106E-12  0.2171E+02
     -7.162  0.0000E+00  0.2171E+02
     -7.151  0.0000E+00  0.2171E+02
     -7.140  0.0000E+00  0.2171E+02
     -7.129  0.0000E+00  0.2171E+02
     -7.118  0.0000E+00  0.2171E+02
     -7.107  0.0000E+00  0.2171E+02
     -7.096  0.0000E+00  0.2171E+02
     -7.085  0.0000E+00  0.2171E+02
     -7.074  0.0000E+00  0.2171E+02
     -7.064  0.0000E+00  0.2171E+02
     -7.053  0.0000E+00  0.2171E+02
     -7.042  0.0000E+00  0.2171E+02
     -7.031  0.3097E-11  0.2171E+02
     -7.020  0.8600E-07  0.2171E+02
     -7.009  0.2352E-03  0.2171E+02
     -6.998  0.6609E-01  0.2171E+02
     -6.987  0.2069E+01  0.2173E+02
     -6.976  0.8220E+01  0.2182E+02
     -6.965  0.4578E+01  0.2187E+02
     -6.954  0.6049E+00  0.2188E+02
     -6.943  0.2747E+01  0.2191E+02