 vasp.5.4.4.18Apr17-6-g9f103f2a35 (build Jun 20 2017 18:00:50) complex          
  
 executed on             LinuxIFC date 2018.03.22  15:21:40
 running on   32 total cores
 distrk:  each k-point on   32 cores,    1 groups
 distr:  one band on NCORES_PER_BAND=   8 cores,    4 groups


--------------------------------------------------------------------------------------------------------


 INCAR:
 POTCAR:    PAW_PBE P 06Sep2000                   
 POTCAR:    PAW_PBE P 06Sep2000                   
   VRHFIN =P : s2p3                                                             
   LEXCH  = PE                                                                  
   EATOM  =   176.0430 eV,   12.9388 Ry                                         
                                                                                
   TITEL  = PAW_PBE P 06Sep2000                                                 
   LULTRA =        F    use ultrasoft PP ?                                      
   IUNSCR =        1    unscreen: 0-lin 1-nonlin 2-no                           
   RPACOR =    1.500    partial core radius                                     
   POMASS =   30.974; ZVAL   =    5.000    mass and valenz                      
   RCORE  =    1.900    outmost cutoff radius                                   
   RWIGS  =    2.330; RWIGS  =    1.233    wigner-seitz radius (au A)           
   ENMAX  =  255.040; ENMIN  =  191.280 eV                                      
   ICORE  =        2    local potential                                         
   LCOR   =        T    correct aug charges                                     
   LPAW   =        T    paw PP                                                  
   EAUG   =  342.924                                                            
   DEXC   =    0.000                                                            
   RMAX   =    1.935    core radius for proj-oper                               
   RAUG   =    1.300    factor for augmentation sphere                          
   RDEP   =    1.931    radius for radial grids                                 
   RDEPT  =    1.794    core radius for aug-charge                              
                                                                                
   Atomic configuration                                                         
    6 entries                                                                   
     n  l   j            E        occ.                                          
     1  0  0.50     -2084.0982   2.0000                                         
     2  0  0.50      -173.9859   2.0000                                         
     2  1  1.50      -124.4865   6.0000                                         
     3  0  0.50       -13.9692   2.0000                                         
     3  1  0.50        -5.5067   3.0000                                         
     3  2  1.50        -5.4423   0.0000                                         
   Description                                                                  
     l       E           TYP  RCUT    TYP  RCUT                                 
     0    -13.9691527     23  1.900                                             
     0    -11.7794650     23  1.900                                             
     1     -5.5066937     23  1.900                                             
     1     -0.2556953     23  1.900                                             
     2     -5.4423304     23  1.900                                             
  local pseudopotential read in
  partial core-charges read in
  partial kinetic energy density read in
  atomic valenz-charges read in
  non local Contribution for L=           0  read in
    real space projection operators read in
  non local Contribution for L=           0  read in
    real space projection operators read in
  non local Contribution for L=           1  read in
    real space projection operators read in
  non local Contribution for L=           1  read in
    real space projection operators read in
    PAW grid and wavefunctions read in
 
   number of l-projection  operators is LMAX  =           4
   number of lm-projection operators is LMMAX =           8
 
  PAW_PBE P 06Sep2000                   :
 energy of atom  1       EATOM= -176.0430
 kinetic energy error for atom=    0.0023 (will be added to EATOM!!)
 
 
 POSCAR: P12                                     
  positions in direct lattice
  No initial velocities read in
 exchange correlation table for  LEXCH =        8
   RHO(1)=    0.500       N(1)  =     2000
   RHO(2)=  100.500       N(2)  =     4000
 


--------------------------------------------------------------------------------------------------------


 ion  position               nearest neighbor table
   1  0.000  0.307  0.919-   2 2.23   2 2.23   3 2.26
   2  0.500  0.307  0.581-   1 2.23   1 2.23   4 2.26
   3  0.000  0.372  0.081-   4 2.23   4 2.23   1 2.26
   4  0.500  0.372  0.419-   3 2.23   3 2.23   2 2.26
   5  0.500  0.467  0.419-   6 2.23   6 2.23   7 2.26
   6  0.000  0.467  0.081-   5 2.23   5 2.23   8 2.26
   7  0.500  0.533  0.581-   8 2.23   8 2.23   5 2.26
   8  0.000  0.533  0.919-   7 2.23   7 2.23   6 2.26
   9  0.000  0.628  0.919-  10 2.23  10 2.23  11 2.26
  10  0.500  0.628  0.581-   9 2.23   9 2.23  12 2.26
  11  0.000  0.693  0.081-  12 2.23  12 2.23   9 2.26
  12  0.500  0.693  0.419-  11 2.23  11 2.23  10 2.26
 
  LATTYP: Found a simple orthorhombic cell.
 ALAT       =     3.3428860000
 B/A-ratio  =     1.3086988309
 C/A-ratio  =     9.7527732026
  
  Lattice vectors:
  
 A1 = (  -3.3428860000,   0.0000000000,   0.0000000000)
 A2 = (   0.0000000000,   0.0000000000,  -4.3748310000)
 A3 = (   0.0000000000, -32.6024090000,   0.0000000000)


Analysis of symmetry for initial positions (statically):
=====================================================================
 Subroutine PRICEL returns:
 Original cell was already a primitive cell.
 

 Routine SETGRP: Setting up the symmetry group for a 
 simple orthorhombic supercell.


 Subroutine GETGRP returns: Found  8 space group operations
 (whereof  4 operations were pure point group operations)
 out of a pool of  8 trial point group operations.


The static configuration has the point symmetry C_2h.
 The point group associated with its full space group is D_2h.


Analysis of symmetry for dynamics (positions and initial velocities):
=====================================================================
 Subroutine PRICEL returns:
 Original cell was already a primitive cell.
 

 Routine SETGRP: Setting up the symmetry group for a 
 simple orthorhombic supercell.


 Subroutine GETGRP returns: Found  8 space group operations
 (whereof  4 operations were pure point group operations)
 out of a pool of  8 trial point group operations.


The dynamic configuration has the point symmetry C_2h.
 The point group associated with its full space group is D_2h.


 Subroutine INISYM returns: Found  8 space group operations
 (whereof  4 operations are pure point group operations),
 and found     1 'primitive' translations

 
 
 KPOINTS: Automatic mesh                          

Automatic generation of k-mesh.
Space group operators:
 irot       det(A)        alpha          n_x          n_y          n_z        tau_x        tau_y        tau_z
    1     1.000000     0.000001     1.000000     0.000000     0.000000     0.000000     0.000000     0.000000
    2    -1.000000     0.000001     1.000000     0.000000     0.000000     0.000000     0.000000     0.000000
    3     1.000000   179.999999     1.000000     0.000000     0.000000     0.000000     0.000000     0.000000
    4    -1.000000   179.999999     1.000000     0.000000     0.000000     0.000000     0.000000     0.000000
    5     1.000000   179.999999     0.000000     1.000000     0.000000    -0.500000     0.000000    -0.500000
    6    -1.000000   179.999999     0.000000     1.000000     0.000000    -0.500000     0.000000    -0.500000
    7     1.000000   179.999999     0.000000     0.000000     1.000000    -0.500000     0.000000    -0.500000
    8    -1.000000   179.999999     0.000000     0.000000     1.000000    -0.500000     0.000000    -0.500000
 
 Subroutine IBZKPT returns following result:
 ===========================================
 
 Found     20 irreducible k-points:
 
 Following reciprocal coordinates:
            Coordinates               Weight
  0.000000  0.000000  0.000000      1.000000
  0.125000  0.000000  0.000000      2.000000
  0.250000  0.000000  0.000000      2.000000
  0.375000  0.000000  0.000000      2.000000
  0.500000  0.000000  0.000000      1.000000
  0.000000  0.000000  0.166667      2.000000
  0.125000  0.000000  0.166667      4.000000
  0.250000  0.000000  0.166667      4.000000
  0.375000  0.000000  0.166667      4.000000
  0.500000  0.000000  0.166667      2.000000
  0.000000  0.000000  0.333333      2.000000
  0.125000  0.000000  0.333333      4.000000
  0.250000  0.000000  0.333333      4.000000
  0.375000  0.000000  0.333333      4.000000
  0.500000  0.000000  0.333333      2.000000
  0.000000  0.000000  0.500000      1.000000
  0.125000  0.000000  0.500000      2.000000
  0.250000  0.000000  0.500000      2.000000
  0.375000  0.000000  0.500000      2.000000
  0.500000  0.000000  0.500000      1.000000
 
 Following cartesian coordinates:
            Coordinates               Weight
  0.000000  0.000000  0.000000      1.000000
  0.037393  0.000000  0.000000      2.000000
  0.074786  0.000000  0.000000      2.000000
  0.112179  0.000000  0.000000      2.000000
  0.149571  0.000000  0.000000      1.000000
  0.000000  0.000000  0.038097      2.000000
  0.037393  0.000000  0.038097      4.000000
  0.074786  0.000000  0.038097      4.000000
  0.112179  0.000000  0.038097      4.000000
  0.149571  0.000000  0.038097      2.000000
  0.000000  0.000000  0.076193      2.000000
  0.037393  0.000000  0.076193      4.000000
  0.074786  0.000000  0.076193      4.000000
  0.112179  0.000000  0.076193      4.000000
  0.149571  0.000000  0.076193      2.000000
  0.000000  0.000000  0.114290      1.000000
  0.037393  0.000000  0.114290      2.000000
  0.074786  0.000000  0.114290      2.000000
  0.112179  0.000000  0.114290      2.000000
  0.149571  0.000000  0.114290      1.000000
 


--------------------------------------------------------------------------------------------------------




 Dimension of arrays:
   k-points           NKPTS =     20   k-points in BZ     NKDIM =     20   number of bands    NBANDS=     40
   number of dos      NEDOS =   2000   number of ions     NIONS =     12
   non local maximal  LDIM  =      4   non local SUM 2l+1 LMDIM =      8
   total plane-waves  NPLWV =  61440
   max r-space proj   IRMAX =      1   max aug-charges    IRDMAX=   4120
   dimension x,y,z NGX =    16 NGY =  160 NGZ =   24
   dimension x,y,z NGXF=    32 NGYF=  320 NGZF=   48
   support grid    NGXF=    32 NGYF=  320 NGZF=   48
   ions per type =              12
   NGX,Y,Z   is equivalent  to a cutoff of   7.96,  8.16,  9.12 a.u.
   NGXF,Y,Z  is equivalent  to a cutoff of  15.91, 16.32, 18.24 a.u.

 SYSTEM =  Generic Input                           
 POSCAR =  P12                                     

 Startparameter for this run:
   NWRITE =      2    write-flag & timer
   PREC   = normal    normal or accurate (medium, high low for compatibility)
   ISTART =      0    job   : 0-new  1-cont  2-samecut
   ICHARG =      2    charge: 1-file 2-atom 10-const
   ISPIN  =      1    spin polarized calculation?
   LNONCOLLINEAR =      F non collinear calculations
   LSORBIT =      F    spin-orbit coupling
   INIWAV =      1    electr: 0-lowe 1-rand  2-diag
   LASPH  =      T    aspherical Exc in radial PAW
   METAGGA=      F    non-selfconsistent MetaGGA calc.

 Electronic Relaxation 1
   ENCUT  =  400.0 eV  29.40 Ry    5.42 a.u.   5.45 53.17  7.13*2*pi/ulx,y,z
   ENINI  =  400.0     initial cutoff
   ENAUG  =  342.9 eV  augmentation charge cutoff
   NELM   =    200;   NELMIN=  2; NELMDL=  0     # of ELM steps 
   EDIFF  = 0.1E-04   stopping-criterion for ELM
   LREAL  =      F    real-space projection
   NLSPLINE    = F    spline interpolate recip. space projectors
   LCOMPAT=      F    compatible to vasp.4.4
   GGA_COMPAT  = T    GGA compatible to vasp.4.4-vasp.4.6
   LMAXPAW     = -100 max onsite density
   LMAXMIX     =    2 max onsite mixed and CHGCAR
   VOSKOWN=      0    Vosko Wilk Nusair interpolation
   ROPT   =    0.00000
 Ionic relaxation
   EDIFFG = -.2E-01   stopping-criterion for IOM
   NSW    =      0    number of steps for IOM
   NBLOCK =      1;   KBLOCK =      1    inner block; outer block 
   IBRION =     -1    ionic relax: 0-MD 1-quasi-New 2-CG
   NFREE  =      1    steps in history (QN), initial steepest desc. (CG)
   ISIF   =      3    stress and relaxation
   IWAVPR =     11    prediction:  0-non 1-charg 2-wave 3-comb
   ISYM   =      2    0-nonsym 1-usesym 2-fastsym
   LCORR  =      T    Harris-Foulkes like correction to forces

   POTIM  = 0.5000    time-step for ionic-motion
   TEIN   =    0.0    initial temperature
   TEBEG  =    0.0;   TEEND  =   0.0 temperature during run
   SMASS  =  -3.00    Nose mass-parameter (am)
   estimated Nose-frequenzy (Omega)   =  0.10E-29 period in steps =****** mass=  -0.255E-27a.u.
   SCALEE = 1.0000    scale energy and forces
   NPACO  =    256;   APACO  = 16.0  distance and # of slots for P.C.
   PSTRESS=    0.0 pullay stress

  Mass of Ions in am
   POMASS =  30.97
  Ionic Valenz
   ZVAL   =   5.00
  Atomic Wigner-Seitz radii
   RWIGS  =  -1.00
  virtual crystal weights 
   VCA    =   1.00
   NELECT =      60.0000    total number of electrons
   NUPDOWN=      -1.0000    fix difference up-down

 DOS related values:
   EMIN   =  10.00;   EMAX   =-10.00  energy-range for DOS
   EFERMI =   0.00
   ISMEAR =     0;   SIGMA  =   0.01  broadening in eV -4-tet -1-fermi 0-gaus

 Electronic relaxation 2 (details)
   IALGO  =     38    algorithm
   LDIAG  =      T    sub-space diagonalisation (order eigenvalues)
   LSUBROT=      F    optimize rotation matrix (better conditioning)
   TURBO    =      0    0=normal 1=particle mesh
   IRESTART =      0    0=no restart 2=restart with 2 vectors
   NREBOOT  =      0    no. of reboots
   NMIN     =      0    reboot dimension
   EREF     =   0.00    reference energy to select bands
   IMIX   =      4    mixing-type and parameters
     AMIX     =   0.40;   BMIX     =  1.00
     AMIX_MAG =   1.60;   BMIX_MAG =  1.00
     AMIN     =   0.10
     WC   =   100.;   INIMIX=   1;  MIXPRE=   1;  MAXMIX= -45

 Intra band minimization:
   WEIMIN = 0.0000     energy-eigenvalue tresh-hold
   EBREAK =  0.63E-07  absolut break condition
   DEPER  =   0.30     relativ break condition  

   TIME   =   0.40     timestep for ELM

  volume/ion in A,a.u.               =      39.73       268.13
  Fermi-wavevector in a.u.,A,eV,Ry     =   0.820379  1.550291  9.157011  0.673021
  Thomas-Fermi vector in A             =   1.931350
 
 Write flags
   LWAVE        =      T    write WAVECAR
   LDOWNSAMPLE  =      F    k-point downsampling of WAVECAR
   LCHARG       =      T    write CHGCAR
   LVTOT        =      F    write LOCPOT, total local potential
   LVHAR        =      T    write LOCPOT, Hartree potential only
   LELF         =      F    write electronic localiz. function (ELF)
   LORBIT       =     11    0 simple, 1 ext, 2 COOP (PROOUT), +10 PAW based schemes


 Dipole corrections
   LMONO  =      F    monopole corrections only (constant potential shift)
   LDIPOL =      F    correct potential (dipole corrections)
   IDIPOL =      0    1-x, 2-y, 3-z, 4-all directions 
   EPSILON=  1.0000000 bulk dielectric constant

 Core level calculations are selected ICORELEVEL =  1
 Exchange correlation treatment:
   GGA     =    PE    GGA type
   LEXCH   =     8    internal setting for exchange type
   VOSKOWN=      0    Vosko Wilk Nusair interpolation
   LHFCALC =     F    Hartree Fock is set to
   LHFONE  =     F    Hartree Fock one center treatment
   AEXX    =    0.0000 exact exchange contribution

 Linear response parameters
   LEPSILON=     F    determine dielectric tensor
   LRPA    =     F    only Hartree local field effects (RPA)
   LNABLA  =     F    use nabla operator in PAW spheres
   LVEL    =     F    velocity operator in full k-point grid
   LINTERFAST=   F  fast interpolation
   KINTER  =     0    interpolate to denser k-point grid
   CSHIFT  =0.1000    complex shift for real part using Kramers Kronig
   OMEGAMAX=  -1.0    maximum frequency
   DEG_THRESHOLD= 0.2000000E-02 threshold for treating states as degnerate
   RTIME   =   -0.100 relaxation time in fs
  (WPLASMAI=    0.000 imaginary part of plasma frequency in eV, 0.658/RTIME)
   DFIELD  = 0.0000000 0.0000000 0.0000000 field for delta impulse in time
 
 Orbital magnetization related:
   ORBITALMAG=     F  switch on orbital magnetization
   LCHIMAG   =     F  perturbation theory with respect to B field
   DQ        =  0.001000  dq finite difference perturbation B field
   LLRAUG    =     F  two centre corrections for induced B field



--------------------------------------------------------------------------------------------------------


 Static calculation
 charge density and potential will be updated during run
 non-spin polarized calculation
 Variant of blocked Davidson
 Davidson routine will perform the subspace rotation
 perform sub-space diagonalisation
    after iterative eigenvector-optimisation
 modified Broyden-mixing scheme, WC =      100.0
 initial mixing is a Kerker type mixing with AMIX =  0.4000 and BMIX =      1.0000
 Hartree-type preconditioning will be used
 using additional bands           10
 reciprocal scheme for non local part
 use partial core corrections
 calculate Harris-corrections to forces 
   (improved forces if not selfconsistent)
 use gradient corrections 
 use of overlap-Matrix (Vanderbilt PP)
 Gauss-broadening in eV      SIGMA  =   0.01


--------------------------------------------------------------------------------------------------------


  energy-cutoff  :      400.00
  volume of cell :      476.80
      direct lattice vectors                 reciprocal lattice vectors
     3.342886000  0.000000000  0.000000000     0.299142717  0.000000000  0.000000000
     0.000000000 32.602409000  0.000000000     0.000000000  0.030672580  0.000000000
     0.000000000  0.000000000  4.374831000     0.000000000  0.000000000  0.228580258

  length of vectors
     3.342886000 32.602409000  4.374831000     0.299142717  0.030672580  0.228580258


 
 k-points in units of 2pi/SCALE and weight: Automatic mesh                          
   0.00000000  0.00000000  0.00000000       0.021
   0.03739284  0.00000000  0.00000000       0.042
   0.07478568  0.00000000  0.00000000       0.042
   0.11217852  0.00000000  0.00000000       0.042
   0.14957136  0.00000000  0.00000000       0.021
   0.00000000  0.00000000  0.03809671       0.042
   0.03739284  0.00000000  0.03809671       0.083
   0.07478568  0.00000000  0.03809671       0.083
   0.11217852  0.00000000  0.03809671       0.083
   0.14957136  0.00000000  0.03809671       0.042
   0.00000000  0.00000000  0.07619342       0.042
   0.03739284  0.00000000  0.07619342       0.083
   0.07478568  0.00000000  0.07619342       0.083
   0.11217852  0.00000000  0.07619342       0.083
   0.14957136  0.00000000  0.07619342       0.042
   0.00000000  0.00000000  0.11429013       0.021
   0.03739284  0.00000000  0.11429013       0.042
   0.07478568  0.00000000  0.11429013       0.042
   0.11217852  0.00000000  0.11429013       0.042
   0.14957136  0.00000000  0.11429013       0.021
 
 k-points in reciprocal lattice and weights: Automatic mesh                          
   0.00000000  0.00000000  0.00000000       0.021
   0.12500000  0.00000000  0.00000000       0.042
   0.25000000  0.00000000  0.00000000       0.042
   0.37500000  0.00000000  0.00000000       0.042
   0.50000000  0.00000000  0.00000000       0.021
   0.00000000  0.00000000  0.16666667       0.042
   0.12500000  0.00000000  0.16666667       0.083
   0.25000000  0.00000000  0.16666667       0.083
   0.37500000  0.00000000  0.16666667       0.083
   0.50000000  0.00000000  0.16666667       0.042
   0.00000000  0.00000000  0.33333333       0.042
   0.12500000  0.00000000  0.33333333       0.083
   0.25000000  0.00000000  0.33333333       0.083
   0.37500000  0.00000000  0.33333333       0.083
   0.50000000  0.00000000  0.33333333       0.042
   0.00000000  0.00000000  0.50000000       0.021
   0.12500000  0.00000000  0.50000000       0.042
   0.25000000  0.00000000  0.50000000       0.042
   0.37500000  0.00000000  0.50000000       0.042
   0.50000000  0.00000000  0.50000000       0.021
 
 position of ions in fractional coordinates (direct lattice) 
   0.00000000  0.30672600  0.91892400
   0.50000000  0.30672600  0.58107600
   0.00000000  0.37246700  0.08107600
   0.50000000  0.37246700  0.41892400
   0.50000000  0.46712900  0.41892400
   0.00000000  0.46712900  0.08107600
   0.50000000  0.53287100  0.58107600
   0.00000000  0.53287100  0.91892400
   0.00000000  0.62753300  0.91892400
   0.50000000  0.62753300  0.58107600
   0.00000000  0.69327400  0.08107600
   0.50000000  0.69327400  0.41892400
 
 position of ions in cartesian coordinates  (Angst):
   0.00000000 10.00000650  4.02013720
   1.67144300 10.00000650  2.54210930
   0.00000000 12.14332147  0.35469380
   1.67144300 12.14332147  1.83272170
   1.67144300 15.22953071  1.83272170
   0.00000000 15.22953071  0.35469380
   1.67144300 17.37287829  2.54210930
   0.00000000 17.37287829  4.02013720
   0.00000000 20.45908753  4.02013720
   1.67144300 20.45908753  2.54210930
   0.00000000 22.60240250  0.35469380
   1.67144300 22.60240250  1.83272170
 


--------------------------------------------------------------------------------------------------------


 k-point  1 :   0.0000 0.0000 0.0000  plane waves:    8627
 k-point  2 :   0.1250 0.0000 0.0000  plane waves:    8653
 k-point  3 :   0.2500 0.0000 0.0000  plane waves:    8667
 k-point  4 :   0.3750 0.0000 0.0000  plane waves:    8655
 k-point  5 :   0.5000 0.0000 0.0000  plane waves:    8610
 k-point  6 :   0.0000 0.0000 0.1667  plane waves:    8668
 k-point  7 :   0.1250 0.0000 0.1667  plane waves:    8673
 k-point  8 :   0.2500 0.0000 0.1667  plane waves:    8664
 k-point  9 :   0.3750 0.0000 0.1667  plane waves:    8636
 k-point 10 :   0.5000 0.0000 0.1667  plane waves:    8616
 k-point 11 :   0.0000 0.0000 0.3333  plane waves:    8736
 k-point 12 :   0.1250 0.0000 0.3333  plane waves:    8699
 k-point 13 :   0.2500 0.0000 0.3333  plane waves:    8683
 k-point 14 :   0.3750 0.0000 0.3333  plane waves:    8624
 k-point 15 :   0.5000 0.0000 0.3333  plane waves:    8612
 k-point 16 :   0.0000 0.0000 0.5000  plane waves:    8766
 k-point 17 :   0.1250 0.0000 0.5000  plane waves:    8720
 k-point 18 :   0.2500 0.0000 0.5000  plane waves:    8642
 k-point 19 :   0.3750 0.0000 0.5000  plane waves:    8644
 k-point 20 :   0.5000 0.0000 0.5000  plane waves:    8572

 maximum and minimum number of plane-waves per node :      1109     1062

 maximum number of plane-waves:      8766
 maximum index in each direction: 
   IXMAX=    5   IYMAX=   53   IZMAX=    7
   IXMIN=   -5   IYMIN=  -53   IZMIN=   -7


 parallel 3D FFT for wavefunctions:
    minimum data exchange during FFTs selected (reduces bandwidth)
 parallel 3D FFT for charge:
    minimum data exchange during FFTs selected (reduces bandwidth)


 total amount of memory used by VASP MPI-rank0    37113. kBytes
=======================================================================

   base      :      30000. kBytes
   nonl-proj :       1636. kBytes
   fftplans  :        792. kBytes
   grid      :       1070. kBytes
   one-center:          6. kBytes
   wavefun   :       3609. kBytes
 
     INWAV:  cpu time    0.0000: real time    0.0000
 Broyden mixing: mesh for mixing (old mesh)
   NGX = 11   NGY =107   NGZ = 15
  (NGX  = 32   NGY  =320   NGZ  = 48)
  gives a total of  17655 points

 initial charge density was supplied:
 charge density of overlapping atoms calculated
 number of electron      60.0000000 magnetization 
 keeping initial charge density in first step


--------------------------------------------------------------------------------------------------------


 Maximum index for augmentation-charges          313 (set IRDMAX)


--------------------------------------------------------------------------------------------------------


 First call to EWALD:  gamma=   0.227
 Maximum number of real-space cells 6x 1x 5
 Maximum number of reciprocal cells 1x10x 2

    FEWALD:  cpu time    0.0018: real time    0.0018


--------------------------------------- Iteration      1(   1)  ---------------------------------------


    POTLOK:  cpu time    0.0245: real time    0.0370
    SETDIJ:  cpu time    0.0638: real time    0.0639
     EDDAV:  cpu time    0.8503: real time    0.8523
       DOS:  cpu time    0.0008: real time    0.0008
    --------------------------------------------
      LOOP:  cpu time    0.9394: real time    0.9539

 eigenvalue-minimisations  :  1600
 total energy-change (2. order) : 0.3409813E+03  (-0.1935718E+04)
 number of electron      60.0000000 magnetization 
 augmentation part       60.0000000 magnetization 

 Free energy of the ion-electron system (eV)
  ---------------------------------------------------
  alpha Z        PSCENC =        30.28014394
  Ewald energy   TEWEN  =     14984.29168251
  -Hartree energ DENC   =    -16938.86341411
  -exchange      EXHF   =         0.00000000
  -V(xc)+E(xc)   XCENC  =        40.54559483
  PAW double counting   =      1677.12035881    -1579.18296132
  entropy T*S    EENTRO =        -0.00064449
  eigenvalues    EBANDS =        14.30194840
  atomic energy  EATOM  =      2112.48864025
  Solvation  Ediel_sol  =         0.00000000
  ---------------------------------------------------
  free energy    TOTEN  =       340.98134881 eV

  energy without entropy =      340.98199331  energy(sigma->0) =      340.98167106


--------------------------------------------------------------------------------------------------------




--------------------------------------- Iteration      1(   2)  ---------------------------------------


     EDDAV:  cpu time    1.0777: real time    1.0801
       DOS:  cpu time    0.0008: real time    0.0008
    --------------------------------------------
      LOOP:  cpu time    1.0785: real time    1.0809

 eigenvalue-minimisations  :  2256
 total energy-change (2. order) :-0.3672728E+03  (-0.3561642E+03)
 number of electron      60.0000000 magnetization 
 augmentation part       60.0000000 magnetization 

 Free energy of the ion-electron system (eV)
  ---------------------------------------------------
  alpha Z        PSCENC =        30.28014394
  Ewald energy   TEWEN  =     14984.29168251
  -Hartree energ DENC   =    -16938.86341411
  -exchange      EXHF   =         0.00000000
  -V(xc)+E(xc)   XCENC  =        40.54559483
  PAW double counting   =      1677.12035881    -1579.18296132
  entropy T*S    EENTRO =        -0.00055626
  eigenvalues    EBANDS =      -352.97093594
  atomic energy  EATOM  =      2112.48864025
  Solvation  Ediel_sol  =         0.00000000
  ---------------------------------------------------
  free energy    TOTEN  =       -26.29144729 eV

  energy without entropy =      -26.29089103  energy(sigma->0) =      -26.29116916


--------------------------------------------------------------------------------------------------------




--------------------------------------- Iteration      1(   3)  ---------------------------------------


     EDDAV:  cpu time    0.9445: real time    0.9470
       DOS:  cpu time    0.0005: real time    0.0005
    --------------------------------------------
      LOOP:  cpu time    0.9450: real time    0.9476

 eigenvalue-minimisations  :  1880
 total energy-change (2. order) :-0.3659911E+02  (-0.3607959E+02)
 number of electron      60.0000000 magnetization 
 augmentation part       60.0000000 magnetization 

 Free energy of the ion-electron system (eV)
  ---------------------------------------------------
  alpha Z        PSCENC =        30.28014394
  Ewald energy   TEWEN  =     14984.29168251
  -Hartree energ DENC   =    -16938.86341411
  -exchange      EXHF   =         0.00000000
  -V(xc)+E(xc)   XCENC  =        40.54559483
  PAW double counting   =      1677.12035881    -1579.18296132
  entropy T*S    EENTRO =        -0.00000000
  eigenvalues    EBANDS =      -389.57059922
  atomic energy  EATOM  =      2112.48864025
  Solvation  Ediel_sol  =         0.00000000
  ---------------------------------------------------
  free energy    TOTEN  =       -62.89055431 eV

  energy without entropy =      -62.89055431  energy(sigma->0) =      -62.89055431


--------------------------------------------------------------------------------------------------------




--------------------------------------- Iteration      1(   4)  ---------------------------------------


     EDDAV:  cpu time    1.1438: real time    1.1477
       DOS:  cpu time    0.0005: real time    0.0005
    --------------------------------------------
      LOOP:  cpu time    1.1443: real time    1.1482

 eigenvalue-minimisations  :  2408
 total energy-change (2. order) :-0.1343127E+01  (-0.1336078E+01)
 number of electron      60.0000000 magnetization 
 augmentation part       60.0000000 magnetization 

 Free energy of the ion-electron system (eV)
  ---------------------------------------------------
  alpha Z        PSCENC =        30.28014394
  Ewald energy   TEWEN  =     14984.29168251
  -Hartree energ DENC   =    -16938.86341411
  -exchange      EXHF   =         0.00000000
  -V(xc)+E(xc)   XCENC  =        40.54559483
  PAW double counting   =      1677.12035881    -1579.18296132
  entropy T*S    EENTRO =        -0.00000000
  eigenvalues    EBANDS =      -390.91372641
  atomic energy  EATOM  =      2112.48864025
  Solvation  Ediel_sol  =         0.00000000
  ---------------------------------------------------
  free energy    TOTEN  =       -64.23368150 eV

  energy without entropy =      -64.23368150  energy(sigma->0) =      -64.23368150


--------------------------------------------------------------------------------------------------------




--------------------------------------- Iteration      1(   5)  ---------------------------------------


     EDDAV:  cpu time    1.1107: real time    1.1135
       DOS:  cpu time    0.0005: real time    0.0005
    CHARGE:  cpu time    0.0392: real time    0.0392
    MIXING:  cpu time    0.0007: real time    0.0007
    --------------------------------------------
      LOOP:  cpu time    1.1512: real time    1.1540

 eigenvalue-minimisations  :  2360
 total energy-change (2. order) :-0.3276107E-01  (-0.3273689E-01)
 number of electron      59.9999939 magnetization 
 augmentation part       -6.5364957 magnetization 

 Broyden mixing:
  rms(total) = 0.17752E+01    rms(broyden)= 0.17752E+01
  rms(prec ) = 0.17806E+01
  weight for this iteration     100.00

 Free energy of the ion-electron system (eV)
  ---------------------------------------------------
  alpha Z        PSCENC =        30.28014394
  Ewald energy   TEWEN  =     14984.29168251
  -Hartree energ DENC   =    -16938.86341411
  -exchange      EXHF   =         0.00000000
  -V(xc)+E(xc)   XCENC  =        40.54559483
  PAW double counting   =      1677.12035881    -1579.18296132
  entropy T*S    EENTRO =        -0.00000000
  eigenvalues    EBANDS =      -390.94648748
  atomic energy  EATOM  =      2112.48864025
  Solvation  Ediel_sol  =         0.00000000
  ---------------------------------------------------
  free energy    TOTEN  =       -64.26644257 eV

  energy without entropy =      -64.26644257  energy(sigma->0) =      -64.26644257


--------------------------------------------------------------------------------------------------------




--------------------------------------- Iteration      1(   6)  ---------------------------------------


    POTLOK:  cpu time    0.0129: real time    0.0142
    SETDIJ:  cpu time    0.0642: real time    0.0642
     EDDAV:  cpu time    0.9958: real time    0.9971
       DOS:  cpu time    0.0005: real time    0.0005
    CHARGE:  cpu time    0.0427: real time    0.0427
    MIXING:  cpu time    0.0007: real time    0.0007
    --------------------------------------------
      LOOP:  cpu time    1.1168: real time    1.1193

 eigenvalue-minimisations  :  2024
 total energy-change (2. order) : 0.3383261E+00  (-0.2044343E-01)
 number of electron      59.9999940 magnetization 
 augmentation part       -6.4984334 magnetization 

 Broyden mixing:
  rms(total) = 0.10523E+01    rms(broyden)= 0.10523E+01
  rms(prec ) = 0.10555E+01
  weight for this iteration     100.00

 eigenvalues of (default mixing * dielectric matrix)
  average eigenvalue GAMMA=   2.4459
  2.4459

 Free energy of the ion-electron system (eV)
  ---------------------------------------------------
  alpha Z        PSCENC =        30.28014394
  Ewald energy   TEWEN  =     14984.29168251
  -Hartree energ DENC   =    -16949.48831748
  -exchange      EXHF   =         0.00000000
  -V(xc)+E(xc)   XCENC  =        41.60430941
  PAW double counting   =      3149.41839855    -3051.94986337
  entropy T*S    EENTRO =        -0.00000000
  eigenvalues    EBANDS =      -380.57311032
  atomic energy  EATOM  =      2112.48864025
  Solvation  Ediel_sol  =         0.00000000
  ---------------------------------------------------
  free energy    TOTEN  =       -63.92811652 eV

  energy without entropy =      -63.92811652  energy(sigma->0) =      -63.92811652


--------------------------------------------------------------------------------------------------------




--------------------------------------- Iteration      1(   7)  ---------------------------------------


    POTLOK:  cpu time    0.0126: real time    0.0143
    SETDIJ:  cpu time    0.0643: real time    0.0643
     EDDAV:  cpu time    0.9729: real time    0.9742
       DOS:  cpu time    0.0005: real time    0.0005
    CHARGE:  cpu time    0.0403: real time    0.0403
    MIXING:  cpu time    0.0006: real time    0.0006
    --------------------------------------------
      LOOP:  cpu time    1.0912: real time    1.0942

 eigenvalue-minimisations  :  1976
 total energy-change (2. order) : 0.1501024E+00  (-0.3835205E-01)
 number of electron      59.9999940 magnetization 
 augmentation part       -6.4495874 magnetization 

 Broyden mixing:
  rms(total) = 0.48402E-01    rms(broyden)= 0.48401E-01
  rms(prec ) = 0.49554E-01
  weight for this iteration     100.00

 eigenvalues of (default mixing * dielectric matrix)
  average eigenvalue GAMMA=   1.8642
  1.2222  2.5063

 Free energy of the ion-electron system (eV)
  ---------------------------------------------------
  alpha Z        PSCENC =        30.28014394
  Ewald energy   TEWEN  =     14984.29168251
  -Hartree energ DENC   =    -16968.29620407
  -exchange      EXHF   =         0.00000000
  -V(xc)+E(xc)   XCENC  =        43.31025491
  PAW double counting   =      6299.75848077    -6202.86309577
  entropy T*S    EENTRO =        -0.00000000
  eigenvalues    EBANDS =      -362.74791664
  atomic energy  EATOM  =      2112.48864025
  Solvation  Ediel_sol  =         0.00000000
  ---------------------------------------------------
  free energy    TOTEN  =       -63.77801410 eV

  energy without entropy =      -63.77801410  energy(sigma->0) =      -63.77801410


--------------------------------------------------------------------------------------------------------




--------------------------------------- Iteration      1(   8)  ---------------------------------------


    POTLOK:  cpu time    0.0143: real time    0.0144
    SETDIJ:  cpu time    0.0643: real time    0.0643
     EDDAV:  cpu time    1.0054: real time    1.0068
       DOS:  cpu time    0.0006: real time    0.0006
    CHARGE:  cpu time    0.0392: real time    0.0392
    MIXING:  cpu time    0.0006: real time    0.0006
    --------------------------------------------
      LOOP:  cpu time    1.1244: real time    1.1260

 eigenvalue-minimisations  :  2048
 total energy-change (2. order) :-0.1117911E-02  (-0.2986299E-02)
 number of electron      59.9999940 magnetization 
 augmentation part       -6.4578592 magnetization 

 Broyden mixing:
  rms(total) = 0.27249E-01    rms(broyden)= 0.27248E-01
  rms(prec ) = 0.27982E-01
  weight for this iteration     100.00

 eigenvalues of (default mixing * dielectric matrix)
  average eigenvalue GAMMA=   1.5682
  2.5237  1.0905  1.0905

 Free energy of the ion-electron system (eV)
  ---------------------------------------------------
  alpha Z        PSCENC =        30.28014394
  Ewald energy   TEWEN  =     14984.29168251
  -Hartree energ DENC   =    -16968.99503266
  -exchange      EXHF   =         0.00000000
  -V(xc)+E(xc)   XCENC  =        43.34432009
  PAW double counting   =      6407.14814151    -6310.19517305
  entropy T*S    EENTRO =        -0.00000000
  eigenvalues    EBANDS =      -362.14185460
  atomic energy  EATOM  =      2112.48864025
  Solvation  Ediel_sol  =         0.00000000
  ---------------------------------------------------
  free energy    TOTEN  =       -63.77913201 eV

  energy without entropy =      -63.77913201  energy(sigma->0) =      -63.77913201


--------------------------------------------------------------------------------------------------------




--------------------------------------- Iteration      1(   9)  ---------------------------------------


    POTLOK:  cpu time    0.0130: real time    0.0146
    SETDIJ:  cpu time    0.0642: real time    0.0642
     EDDAV:  cpu time    1.1319: real time    1.1331
       DOS:  cpu time    0.0005: real time    0.0005
    CHARGE:  cpu time    0.0415: real time    0.0415
    MIXING:  cpu time    0.0006: real time    0.0006
    --------------------------------------------
      LOOP:  cpu time    1.2517: real time    1.2545

 eigenvalue-minimisations  :  2408
 total energy-change (2. order) : 0.5360112E-04  (-0.2016792E-03)
 number of electron      59.9999940 magnetization 
 augmentation part       -6.4593020 magnetization 

 Broyden mixing:
  rms(total) = 0.20457E-01    rms(broyden)= 0.20457E-01
  rms(prec ) = 0.21034E-01
  weight for this iteration     100.00

 eigenvalues of (default mixing * dielectric matrix)
  average eigenvalue GAMMA=   1.6439
  0.9833  2.1539  1.7192  1.7192

 Free energy of the ion-electron system (eV)
  ---------------------------------------------------
  alpha Z        PSCENC =        30.28014394
  Ewald energy   TEWEN  =     14984.29168251
  -Hartree energ DENC   =    -16969.80696748
  -exchange      EXHF   =         0.00000000
  -V(xc)+E(xc)   XCENC  =        43.35734961
  PAW double counting   =      6424.12508154    -6327.15198141
  entropy T*S    EENTRO =        -0.00000000
  eigenvalues    EBANDS =      -361.36302736
  atomic energy  EATOM  =      2112.48864025
  Solvation  Ediel_sol  =         0.00000000
  ---------------------------------------------------
  free energy    TOTEN  =       -63.77907841 eV

  energy without entropy =      -63.77907841  energy(sigma->0) =      -63.77907841


--------------------------------------------------------------------------------------------------------




--------------------------------------- Iteration      1(  10)  ---------------------------------------


    POTLOK:  cpu time    0.0138: real time    0.0152
    SETDIJ:  cpu time    0.0643: real time    0.0643
     EDDAV:  cpu time    0.9565: real time    0.9582
       DOS:  cpu time    0.0005: real time    0.0005
    CHARGE:  cpu time    0.0407: real time    0.0407
    MIXING:  cpu time    0.0010: real time    0.0010
    --------------------------------------------
      LOOP:  cpu time    1.0768: real time    1.0800

 eigenvalue-minimisations  :  1952
 total energy-change (2. order) : 0.1715522E-03  (-0.6182885E-04)
 number of electron      59.9999940 magnetization 
 augmentation part       -6.4606998 magnetization 

 Broyden mixing:
  rms(total) = 0.94834E-02    rms(broyden)= 0.94834E-02
  rms(prec ) = 0.10065E-01
  weight for this iteration     100.00

 eigenvalues of (default mixing * dielectric matrix)
  average eigenvalue GAMMA=   1.6695
  2.4795  2.4795  0.9476  1.2205  1.2205

 Free energy of the ion-electron system (eV)
  ---------------------------------------------------
  alpha Z        PSCENC =        30.28014394
  Ewald energy   TEWEN  =     14984.29168251
  -Hartree energ DENC   =    -16971.05822556
  -exchange      EXHF   =         0.00000000
  -V(xc)+E(xc)   XCENC  =        43.34675216
  PAW double counting   =      6356.94256583    -6259.93797948
  entropy T*S    EENTRO =        -0.00000000
  eigenvalues    EBANDS =      -360.13248651
  atomic energy  EATOM  =      2112.48864025
  Solvation  Ediel_sol  =         0.00000000
  ---------------------------------------------------
  free energy    TOTEN  =       -63.77890686 eV

  energy without entropy =      -63.77890686  energy(sigma->0) =      -63.77890686


--------------------------------------------------------------------------------------------------------




--------------------------------------- Iteration      1(  11)  ---------------------------------------


    POTLOK:  cpu time    0.0132: real time    0.0146
    SETDIJ:  cpu time    0.0643: real time    0.0643
     EDDAV:  cpu time    1.0273: real time    1.0286
       DOS:  cpu time    0.0005: real time    0.0005
    CHARGE:  cpu time    0.0380: real time    0.0382
    MIXING:  cpu time    0.0007: real time    0.0007
    --------------------------------------------
      LOOP:  cpu time    1.1440: real time    1.1469

 eigenvalue-minimisations  :  2096
 total energy-change (2. order) : 0.1065378E-03  (-0.2608696E-04)
 number of electron      59.9999940 magnetization 
 augmentation part       -6.4605952 magnetization 

 Broyden mixing:
  rms(total) = 0.36413E-02    rms(broyden)= 0.36413E-02
  rms(prec ) = 0.43148E-02
  weight for this iteration     100.00

 eigenvalues of (default mixing * dielectric matrix)
  average eigenvalue GAMMA=   1.4949
  2.4878  2.4878  1.2429  1.2429  0.8778  0.6300

 Free energy of the ion-electron system (eV)
  ---------------------------------------------------
  alpha Z        PSCENC =        30.28014394
  Ewald energy   TEWEN  =     14984.29168251
  -Hartree energ DENC   =    -16972.37622186
  -exchange      EXHF   =         0.00000000
  -V(xc)+E(xc)   XCENC  =        43.37397025
  PAW double counting   =      6384.74315125    -6287.73211464
  entropy T*S    EENTRO =        -0.00000000
  eigenvalues    EBANDS =      -358.84805202
  atomic energy  EATOM  =      2112.48864025
  Solvation  Ediel_sol  =         0.00000000
  ---------------------------------------------------
  free energy    TOTEN  =       -63.77880032 eV

  energy without entropy =      -63.77880032  energy(sigma->0) =      -63.77880032


--------------------------------------------------------------------------------------------------------




--------------------------------------- Iteration      1(  12)  ---------------------------------------


    POTLOK:  cpu time    0.0140: real time    0.0143
    SETDIJ:  cpu time    0.0642: real time    0.0642
     EDDAV:  cpu time    0.9479: real time    0.9493
       DOS:  cpu time    0.0005: real time    0.0005
    CHARGE:  cpu time    0.0413: real time    0.0413
    MIXING:  cpu time    0.0007: real time    0.0007
    --------------------------------------------
      LOOP:  cpu time    1.0686: real time    1.0703

 eigenvalue-minimisations  :  1880
 total energy-change (2. order) :-0.4885132E-04  (-0.3588953E-05)
 number of electron      59.9999940 magnetization 
 augmentation part       -6.4605095 magnetization 

 Broyden mixing:
  rms(total) = 0.17575E-02    rms(broyden)= 0.17575E-02
  rms(prec ) = 0.25829E-02
  weight for this iteration     100.00

 eigenvalues of (default mixing * dielectric matrix)
  average eigenvalue GAMMA=   1.7080
  2.8490  2.4876  1.8217  1.8217  1.0256  0.9751  0.9751

 Free energy of the ion-electron system (eV)
  ---------------------------------------------------
  alpha Z        PSCENC =        30.28014394
  Ewald energy   TEWEN  =     14984.29168251
  -Hartree energ DENC   =    -16972.96956349
  -exchange      EXHF   =         0.00000000
  -V(xc)+E(xc)   XCENC  =        43.37650157
  PAW double counting   =      6377.67468934    -6280.66332406
  entropy T*S    EENTRO =        -0.00000000
  eigenvalues    EBANDS =      -358.25761923
  atomic energy  EATOM  =      2112.48864025
  Solvation  Ediel_sol  =         0.00000000
  ---------------------------------------------------
  free energy    TOTEN  =       -63.77884917 eV

  energy without entropy =      -63.77884917  energy(sigma->0) =      -63.77884917


--------------------------------------------------------------------------------------------------------




--------------------------------------- Iteration      1(  13)  ---------------------------------------


    POTLOK:  cpu time    0.0128: real time    0.0148
    SETDIJ:  cpu time    0.0641: real time    0.0642
     EDDAV:  cpu time    0.9416: real time    0.9429
       DOS:  cpu time    0.0005: real time    0.0005
    CHARGE:  cpu time    0.0383: real time    0.0383
    MIXING:  cpu time    0.0007: real time    0.0007
    --------------------------------------------
      LOOP:  cpu time    1.0581: real time    1.0614

 eigenvalue-minimisations  :  1872
 total energy-change (2. order) :-0.1697221E-03  (-0.1162433E-04)
 number of electron      59.9999940 magnetization 
 augmentation part       -6.4601490 magnetization 

 Broyden mixing:
  rms(total) = 0.15256E-02    rms(broyden)= 0.15256E-02
  rms(prec ) = 0.18088E-02
  weight for this iteration     100.00

 eigenvalues of (default mixing * dielectric matrix)
  average eigenvalue GAMMA=   1.7038
  3.5700  2.5170  2.1813  1.4391  1.0398  1.0398  0.9215  0.9215

 Free energy of the ion-electron system (eV)
  ---------------------------------------------------
  alpha Z        PSCENC =        30.28014394
  Ewald energy   TEWEN  =     14984.29168251
  -Hartree energ DENC   =    -16974.41396280
  -exchange      EXHF   =         0.00000000
  -V(xc)+E(xc)   XCENC  =        43.38857313
  PAW double counting   =      6374.73857152    -6277.72733326
  entropy T*S    EENTRO =        -0.00000000
  eigenvalues    EBANDS =      -356.82533418
  atomic energy  EATOM  =      2112.48864025
  Solvation  Ediel_sol  =         0.00000000
  ---------------------------------------------------
  free energy    TOTEN  =       -63.77901889 eV

  energy without entropy =      -63.77901889  energy(sigma->0) =      -63.77901889


--------------------------------------------------------------------------------------------------------




--------------------------------------- Iteration      1(  14)  ---------------------------------------


    POTLOK:  cpu time    0.0145: real time    0.0147
    SETDIJ:  cpu time    0.0642: real time    0.0642
     EDDAV:  cpu time    0.8549: real time    0.8562
       DOS:  cpu time    0.0005: real time    0.0005
    CHARGE:  cpu time    0.0400: real time    0.0400
    MIXING:  cpu time    0.0008: real time    0.0008
    --------------------------------------------
      LOOP:  cpu time    0.9749: real time    0.9763

 eigenvalue-minimisations  :  1632
 total energy-change (2. order) :-0.1388074E-03  (-0.2361099E-05)
 number of electron      59.9999940 magnetization 
 augmentation part       -6.4600111 magnetization 

 Broyden mixing:
  rms(total) = 0.18396E-02    rms(broyden)= 0.18396E-02
  rms(prec ) = 0.19544E-02
  weight for this iteration     100.00

 eigenvalues of (default mixing * dielectric matrix)
  average eigenvalue GAMMA=   1.6990
  3.6939  2.3219  2.3219  1.4791  1.4791  1.1193  1.1193  0.9455  0.8108

 Free energy of the ion-electron system (eV)
  ---------------------------------------------------
  alpha Z        PSCENC =        30.28014394
  Ewald energy   TEWEN  =     14984.29168251
  -Hartree energ DENC   =    -16974.94265023
  -exchange      EXHF   =         0.00000000
  -V(xc)+E(xc)   XCENC  =        43.39104452
  PAW double counting   =      6372.70931596    -6275.69814177
  entropy T*S    EENTRO =        -0.00000000
  eigenvalues    EBANDS =      -356.29919288
  atomic energy  EATOM  =      2112.48864025
  Solvation  Ediel_sol  =         0.00000000
  ---------------------------------------------------
  free energy    TOTEN  =       -63.77915770 eV

  energy without entropy =      -63.77915770  energy(sigma->0) =      -63.77915770


--------------------------------------------------------------------------------------------------------




--------------------------------------- Iteration      1(  15)  ---------------------------------------


    POTLOK:  cpu time    0.0130: real time    0.0150
    SETDIJ:  cpu time    0.0642: real time    0.0642
     EDDAV:  cpu time    0.7857: real time    0.7871
       DOS:  cpu time    0.0006: real time    0.0006
    CHARGE:  cpu time    0.0407: real time    0.0407
    MIXING:  cpu time    0.0009: real time    0.0009
    --------------------------------------------
      LOOP:  cpu time    0.9051: real time    0.9085

 eigenvalue-minimisations  :  1392
 total energy-change (2. order) :-0.1851514E-03  (-0.9764339E-06)
 number of electron      59.9999940 magnetization 
 augmentation part       -6.4600164 magnetization 

 Broyden mixing:
  rms(total) = 0.59220E-03    rms(broyden)= 0.59220E-03
  rms(prec ) = 0.70208E-03
  weight for this iteration     100.00

 eigenvalues of (default mixing * dielectric matrix)
  average eigenvalue GAMMA=   1.9850
  5.9875  2.8437  2.5813  1.7610  1.7610  1.1031  1.1031  0.9546  0.8774  0.8774

 Free energy of the ion-electron system (eV)
  ---------------------------------------------------
  alpha Z        PSCENC =        30.28014394
  Ewald energy   TEWEN  =     14984.29168251
  -Hartree energ DENC   =    -16975.36852114
  -exchange      EXHF   =         0.00000000
  -V(xc)+E(xc)   XCENC  =        43.39219764
  PAW double counting   =      6376.53607948    -6279.52472381
  entropy T*S    EENTRO =        -0.00000000
  eigenvalues    EBANDS =      -355.87484172
  atomic energy  EATOM  =      2112.48864025
  Solvation  Ediel_sol  =         0.00000000
  ---------------------------------------------------
  free energy    TOTEN  =       -63.77934285 eV

  energy without entropy =      -63.77934285  energy(sigma->0) =      -63.77934285


--------------------------------------------------------------------------------------------------------




--------------------------------------- Iteration      1(  16)  ---------------------------------------


    POTLOK:  cpu time    0.0128: real time    0.0146
    SETDIJ:  cpu time    0.0643: real time    0.0643
     EDDAV:  cpu time    0.7965: real time    0.7983
       DOS:  cpu time    0.0006: real time    0.0006
    CHARGE:  cpu time    0.0415: real time    0.0415
    MIXING:  cpu time    0.0010: real time    0.0010
    --------------------------------------------
      LOOP:  cpu time    0.9168: real time    0.9204

 eigenvalue-minimisations  :  1472
 total energy-change (2. order) :-0.1334748E-03  (-0.1382681E-05)
 number of electron      59.9999940 magnetization 
 augmentation part       -6.4599785 magnetization 

 Broyden mixing:
  rms(total) = 0.77882E-03    rms(broyden)= 0.77882E-03
  rms(prec ) = 0.79398E-03
  weight for this iteration     100.00

 eigenvalues of (default mixing * dielectric matrix)
  average eigenvalue GAMMA=   1.9806
  6.5447  2.6895  2.6895  2.0391  1.4685  1.2995  1.2995  1.0195  1.0195  0.8585
  0.8585

 Free energy of the ion-electron system (eV)
  ---------------------------------------------------
  alpha Z        PSCENC =        30.28014394
  Ewald energy   TEWEN  =     14984.29168251
  -Hartree energ DENC   =    -16975.77463363
  -exchange      EXHF   =         0.00000000
  -V(xc)+E(xc)   XCENC  =        43.39259926
  PAW double counting   =      6377.01596664    -6280.00450159
  entropy T*S    EENTRO =        -0.00000000
  eigenvalues    EBANDS =      -355.46937372
  atomic energy  EATOM  =      2112.48864025
  Solvation  Ediel_sol  =         0.00000000
  ---------------------------------------------------
  free energy    TOTEN  =       -63.77947633 eV

  energy without entropy =      -63.77947633  energy(sigma->0) =      -63.77947633


--------------------------------------------------------------------------------------------------------




--------------------------------------- Iteration      1(  17)  ---------------------------------------


    POTLOK:  cpu time    0.0132: real time    0.0147
    SETDIJ:  cpu time    0.0643: real time    0.0643
     EDDAV:  cpu time    0.7475: real time    0.7489
       DOS:  cpu time    0.0005: real time    0.0005
    CHARGE:  cpu time    0.0440: real time    0.0440
    MIXING:  cpu time    0.0009: real time    0.0009
    --------------------------------------------
      LOOP:  cpu time    0.8705: real time    0.8735

 eigenvalue-minimisations  :  1304
 total energy-change (2. order) :-0.3913494E-04  (-0.1063466E-06)
 number of electron      59.9999940 magnetization 
 augmentation part       -6.4599858 magnetization 

 Broyden mixing:
  rms(total) = 0.29887E-03    rms(broyden)= 0.29887E-03
  rms(prec ) = 0.31589E-03
  weight for this iteration     100.00

 eigenvalues of (default mixing * dielectric matrix)
  average eigenvalue GAMMA=   2.0925
  7.4207  3.3215  2.5314  2.2649  1.6762  1.6762  1.5394  1.0354  1.0354  0.8948
  0.8573  0.8573

 Free energy of the ion-electron system (eV)
  ---------------------------------------------------
  alpha Z        PSCENC =        30.28014394
  Ewald energy   TEWEN  =     14984.29168251
  -Hartree energ DENC   =    -16975.83568142
  -exchange      EXHF   =         0.00000000
  -V(xc)+E(xc)   XCENC  =        43.39241760
  PAW double counting   =      6376.53392474    -6279.52219355
  entropy T*S    EENTRO =        -0.00000000
  eigenvalues    EBANDS =      -355.40844953
  atomic energy  EATOM  =      2112.48864025
  Solvation  Ediel_sol  =         0.00000000
  ---------------------------------------------------
  free energy    TOTEN  =       -63.77951546 eV

  energy without entropy =      -63.77951546  energy(sigma->0) =      -63.77951546


--------------------------------------------------------------------------------------------------------




--------------------------------------- Iteration      1(  18)  ---------------------------------------


    POTLOK:  cpu time    0.0132: real time    0.0148
    SETDIJ:  cpu time    0.0649: real time    0.0649
     EDDAV:  cpu time    0.7420: real time    0.7432
       DOS:  cpu time    0.0005: real time    0.0005
    CHARGE:  cpu time    0.0379: real time    0.0379
    MIXING:  cpu time    0.0012: real time    0.0012
    --------------------------------------------
      LOOP:  cpu time    0.8597: real time    0.8625

 eigenvalue-minimisations  :  1304
 total energy-change (2. order) :-0.4004772E-04  (-0.9252922E-07)
 number of electron      59.9999940 magnetization 
 augmentation part       -6.4599982 magnetization 

 Broyden mixing:
  rms(total) = 0.15181E-03    rms(broyden)= 0.15181E-03
  rms(prec ) = 0.15971E-03
  weight for this iteration     100.00

 eigenvalues of (default mixing * dielectric matrix)
  average eigenvalue GAMMA=   2.0819
  7.6732  3.3583  2.4825  2.4825  1.7218  1.7218  1.4308  1.4308  1.0513  1.0513
  0.9167  0.8721  0.8721

 Free energy of the ion-electron system (eV)
  ---------------------------------------------------
  alpha Z        PSCENC =        30.28014394
  Ewald energy   TEWEN  =     14984.29168251
  -Hartree energ DENC   =    -16975.87734253
  -exchange      EXHF   =         0.00000000
  -V(xc)+E(xc)   XCENC  =        43.39204446
  PAW double counting   =      6376.14446947    -6279.13272380
  entropy T*S    EENTRO =        -0.00000000
  eigenvalues    EBANDS =      -355.36646981
  atomic energy  EATOM  =      2112.48864025
  Solvation  Ediel_sol  =         0.00000000
  ---------------------------------------------------
  free energy    TOTEN  =       -63.77955551 eV

  energy without entropy =      -63.77955551  energy(sigma->0) =      -63.77955551


--------------------------------------------------------------------------------------------------------




--------------------------------------- Iteration      1(  19)  ---------------------------------------


    POTLOK:  cpu time    0.0134: real time    0.0147
    SETDIJ:  cpu time    0.0643: real time    0.0643
     EDDAV:  cpu time    0.7055: real time    0.7068
       DOS:  cpu time    0.0005: real time    0.0005
    CHARGE:  cpu time    0.0421: real time    0.0421
    MIXING:  cpu time    0.0011: real time    0.0011
    --------------------------------------------
      LOOP:  cpu time    0.8271: real time    0.8296

 eigenvalue-minimisations  :  1176
 total energy-change (2. order) :-0.1046150E-04  (-0.1627273E-07)
 number of electron      59.9999940 magnetization 
 augmentation part       -6.4600034 magnetization 

 Broyden mixing:
  rms(total) = 0.10443E-03    rms(broyden)= 0.10442E-03
  rms(prec ) = 0.10962E-03
  weight for this iteration     100.00

 eigenvalues of (default mixing * dielectric matrix)
  average eigenvalue GAMMA=   2.1636
  8.1448  4.0753  2.8421  2.3769  2.3415  1.6204  1.6204  1.5773  1.0278  1.0278
  0.9815  0.9351  0.8597  0.8597

 Free energy of the ion-electron system (eV)
  ---------------------------------------------------
  alpha Z        PSCENC =        30.28014394
  Ewald energy   TEWEN  =     14984.29168251
  -Hartree energ DENC   =    -16975.88355390
  -exchange      EXHF   =         0.00000000
  -V(xc)+E(xc)   XCENC  =        43.39197518
  PAW double counting   =      6375.79530915    -6278.78358979
  entropy T*S    EENTRO =        -0.00000000
  eigenvalues    EBANDS =      -355.36017332
  atomic energy  EATOM  =      2112.48864025
  Solvation  Ediel_sol  =         0.00000000
  ---------------------------------------------------
  free energy    TOTEN  =       -63.77956597 eV

  energy without entropy =      -63.77956597  energy(sigma->0) =      -63.77956597


--------------------------------------------------------------------------------------------------------




--------------------------------------- Iteration      1(  20)  ---------------------------------------


    POTLOK:  cpu time    0.0133: real time    0.0147
    SETDIJ:  cpu time    0.0644: real time    0.0644
     EDDAV:  cpu time    0.7061: real time    0.7074
       DOS:  cpu time    0.0006: real time    0.0006
    CHARGE:  cpu time    0.0414: real time    0.0414
    MIXING:  cpu time    0.0011: real time    0.0011
    --------------------------------------------
      LOOP:  cpu time    0.8268: real time    0.8295

 eigenvalue-minimisations  :  1208
 total energy-change (2. order) :-0.1011214E-04  (-0.2794274E-07)
 number of electron      59.9999940 magnetization 
 augmentation part       -6.4600035 magnetization 

 Broyden mixing:
  rms(total) = 0.24260E-04    rms(broyden)= 0.24255E-04
  rms(prec ) = 0.27816E-04
  weight for this iteration     100.00

 eigenvalues of (default mixing * dielectric matrix)
  average eigenvalue GAMMA=   2.1654
  8.0831  4.9030  2.8662  2.3240  2.3240  1.6676  1.6676  1.4569  1.4569  1.0673
  1.0673  0.8618  0.8618  0.9499  0.9236

 Free energy of the ion-electron system (eV)
  ---------------------------------------------------
  alpha Z        PSCENC =        30.28014394
  Ewald energy   TEWEN  =     14984.29168251
  -Hartree energ DENC   =    -16975.89584657
  -exchange      EXHF   =         0.00000000
  -V(xc)+E(xc)   XCENC  =        43.39205996
  PAW double counting   =      6375.88825274    -6278.87658780
  entropy T*S    EENTRO =        -0.00000000
  eigenvalues    EBANDS =      -355.34792111
  atomic energy  EATOM  =      2112.48864025
  Solvation  Ediel_sol  =         0.00000000
  ---------------------------------------------------
  free energy    TOTEN  =       -63.77957608 eV

  energy without entropy =      -63.77957608  energy(sigma->0) =      -63.77957608


--------------------------------------------------------------------------------------------------------




--------------------------------------- Iteration      1(  21)  ---------------------------------------


    POTLOK:  cpu time    0.0135: real time    0.0150
    SETDIJ:  cpu time    0.0643: real time    0.0642
     EDDAV:  cpu time    0.6918: real time    0.6930
       DOS:  cpu time    0.0005: real time    0.0005
    --------------------------------------------
      LOOP:  cpu time    0.8528: real time    0.8555

 eigenvalue-minimisations  :  1160
 total energy-change (2. order) :-0.1299781E-05  (-0.6061648E-08)
 number of electron      59.9999940 magnetization 
 augmentation part       -6.4600035 magnetization 

 Free energy of the ion-electron system (eV)
  ---------------------------------------------------
  alpha Z        PSCENC =        30.28014394
  Ewald energy   TEWEN  =     14984.29168251
  -Hartree energ DENC   =    -16975.89823461
  -exchange      EXHF   =         0.00000000
  -V(xc)+E(xc)   XCENC  =        43.39204954
  PAW double counting   =      6375.91145332    -6278.89978565
  entropy T*S    EENTRO =        -0.00000000
  eigenvalues    EBANDS =      -355.34552669
  atomic energy  EATOM  =      2112.48864025
  Solvation  Ediel_sol  =         0.00000000
  ---------------------------------------------------
  free energy    TOTEN  =       -63.77957738 eV

  energy without entropy =      -63.77957738  energy(sigma->0) =      -63.77957738


--------------------------------------------------------------------------------------------------------




 the core state eigenenergies are
   1-  1s  -2078.3996  2s   -168.4279  2p   -118.9138
   2-  1s  -2078.3996  2s   -168.4279  2p   -118.9138
   3-  1s  -2078.4715  2s   -168.5069  2p   -118.9923
   4-  1s  -2078.4715  2s   -168.5069  2p   -118.9923
   5-  1s  -2078.5050  2s   -168.5411  2p   -119.0265
   6-  1s  -2078.5050  2s   -168.5411  2p   -119.0265
   7-  1s  -2078.5050  2s   -168.5411  2p   -119.0265
   8-  1s  -2078.5050  2s   -168.5411  2p   -119.0265
   9-  1s  -2078.4715  2s   -168.5069  2p   -118.9923
  10-  1s  -2078.4715  2s   -168.5069  2p   -118.9923
  11-  1s  -2078.3996  2s   -168.4279  2p   -118.9138
  12-  1s  -2078.3996  2s   -168.4279  2p   -118.9138
 
 E-fermi :   0.6951     XC(G=0):  -5.0770     alpha+bet : -5.5572


 k-point     1 :       0.0000    0.0000    0.0000
  band No.  band energies     occupation 
      1     -14.9542      2.00000
      2     -14.7779      2.00000
      3     -14.6818      2.00000
      4     -12.5624      2.00000
      5     -12.1857      2.00000
      6     -11.9319      2.00000
      7      -8.6831      2.00000
      8      -8.5518      2.00000
      9      -8.4960      2.00000
     10      -6.3000      2.00000
     11      -5.6064      2.00000
     12      -4.8704      2.00000
     13      -4.7829      2.00000
     14      -4.5988      2.00000
     15      -4.2758      2.00000
     16      -4.2128      2.00000
     17      -3.9856      2.00000
     18      -3.8192      2.00000
     19      -3.4880      2.00000
     20      -3.3357      2.00000
     21      -3.2641      2.00000
     22      -2.0676      2.00000
     23      -1.8619      2.00000
     24      -1.6309      2.00000
     25      -1.5234      2.00000
     26      -1.5164      2.00000
     27      -0.8966      2.00000
     28      -0.5884      2.00000
     29       0.1383      2.00000
     30       0.3222      2.00000
     31       1.0459      0.00000
     32       1.3367      0.00000
     33       1.3448      0.00000
     34       1.5973      0.00000
     35       2.0091      0.00000
     36       2.5511      0.00000
     37       2.5978      0.00000
     38       2.8833      0.00000
     39       3.0368      0.00000
     40       3.6344      0.00000

 k-point     2 :       0.1250    0.0000    0.0000
  band No.  band energies     occupation 
      1     -14.7720      2.00000
      2     -14.5962      2.00000
      3     -14.5007      2.00000
      4     -12.3737      2.00000
      5     -11.9971      2.00000
      6     -11.7432      2.00000
      7      -8.8481      2.00000
      8      -8.7148      2.00000
      9      -8.6577      2.00000
     10      -6.1447      2.00000
     11      -5.4567      2.00000
     12      -5.0862      2.00000
     13      -4.7359      2.00000
     14      -4.6072      2.00000
     15      -4.4422      2.00000
     16      -4.2473      2.00000
     17      -4.1885      2.00000
     18      -4.0870      2.00000
     19      -4.0621      2.00000
     20      -4.0082      2.00000
     21      -3.8289      2.00000
     22      -2.5839      2.00000
     23      -2.3208      2.00000
     24      -2.1490      2.00000
     25      -1.9826      2.00000
     26      -1.4402      2.00000
     27      -0.8131      2.00000
     28      -0.7083      2.00000
     29       0.2275      2.00000
     30       0.3115      2.00000
     31       1.0960      0.00000
     32       1.4990      0.00000
     33       2.6969      0.00000
     34       2.7029      0.00000
     35       2.7309      0.00000
     36       2.9422      0.00000
     37       2.9463      0.00000
     38       2.9749      0.00000
     39       3.2041      0.00000
     40       3.7422      0.00000

 k-point     3 :       0.2500    0.0000    0.0000
  band No.  band energies     occupation 
      1     -14.2306      2.00000
      2     -14.0564      2.00000
      3     -13.9626      2.00000
      4     -11.8106      2.00000
      5     -11.4341      2.00000
      6     -11.1799      2.00000
      7      -9.5511      2.00000
      8      -9.4076      2.00000
      9      -9.3428      2.00000
     10      -6.3517      2.00000
     11      -5.9416      2.00000
     12      -5.6995      2.00000
     13      -5.6274      2.00000
     14      -5.0357      2.00000
     15      -5.0117      2.00000
     16      -4.8454      2.00000
     17      -4.7675      2.00000
     18      -4.3786      2.00000
     19      -3.9977      2.00000
     20      -3.6381      2.00000
     21      -3.3818      2.00000
     22      -2.9521      2.00000
     23      -2.6320      2.00000
     24      -2.3299      2.00000
     25      -1.8805      2.00000
     26      -1.3486      2.00000
     27      -1.1585      2.00000
     28      -0.7344      2.00000
     29      -0.2335      2.00000
     30       0.6505      2.00000
     31       0.8203      0.00000
     32       1.3681      0.00000
     33       1.6391      0.00000
     34       1.8134      0.00000
     35       2.0282      0.00000
     36       3.1853      0.00000
     37       3.2216      0.00000
     38       3.4937      0.00000
     39       3.5591      0.00000
     40       3.7442      0.00000

 k-point     4 :       0.3750    0.0000    0.0000
  band No.  band energies     occupation 
      1     -13.3487      2.00000
      2     -13.1775      2.00000
      3     -13.0868      2.00000
      4     -10.8827      2.00000
      5     -10.8085      2.00000
      6     -10.6514      2.00000
      7     -10.5747      2.00000
      8     -10.5061      2.00000
      9     -10.2507      2.00000
     10      -8.0489      2.00000
     11      -7.6636      2.00000
     12      -7.3921      2.00000
     13      -5.0655      2.00000
     14      -4.9527      2.00000
     15      -4.7724      2.00000
     16      -4.6877      2.00000
     17      -4.4916      2.00000
     18      -4.0301      2.00000
     19      -3.3864      2.00000
     20      -3.0845      2.00000
     21      -2.7696      2.00000
     22      -2.7489      2.00000
     23      -2.5484      2.00000
     24      -2.1710      2.00000
     25      -2.0940      2.00000
     26      -1.8203      2.00000
     27      -1.6180      2.00000
     28      -1.0146      2.00000
     29      -0.9993      2.00000
     30      -0.1697      2.00000
     31       1.0843      0.00000
     32       1.4085      0.00000
     33       1.5663      0.00000
     34       1.7014      0.00000
     35       1.7110      0.00000
     36       2.0813      0.00000
     37       2.2148      0.00000
     38       2.3652      0.00000
     39       2.3955      0.00000
     40       2.7369      0.00000

 k-point     5 :       0.5000    0.0000    0.0000
  band No.  band energies     occupation 
      1     -12.1708      2.00000
      2     -12.1708      2.00000
      3     -12.0048      2.00000
      4     -12.0048      2.00000
      5     -11.9195      2.00000
      6     -11.9195      2.00000
      7      -9.6118      2.00000
      8      -9.6118      2.00000
      9      -9.2335      2.00000
     10      -9.2335      2.00000
     11      -8.9742      2.00000
     12      -8.9742      2.00000
     13      -4.6713      2.00000
     14      -4.6713      2.00000
     15      -4.3609      2.00000
     16      -4.3609      2.00000
     17      -4.1962      2.00000
     18      -4.1962      2.00000
     19      -2.8922      2.00000
     20      -2.8922      2.00000
     21      -2.8694      2.00000
     22      -2.8694      2.00000
     23      -2.2100      2.00000
     24      -2.2100      2.00000
     25      -2.1692      2.00000
     26      -2.1692      2.00000
     27      -1.5904      2.00000
     28      -1.5904      2.00000
     29      -0.9111      2.00000
     30      -0.9111      2.00000
     31       1.2283      0.00000
     32       1.2283      0.00000
     33       1.6124      0.00000
     34       1.6124      0.00000
     35       1.9281      0.00000
     36       1.9281      0.00000
     37       1.9794      0.00000
     38       1.9794      0.00000
     39       2.2775      0.00000
     40       2.2775      0.00000

 k-point     6 :       0.0000    0.0000    0.1667
  band No.  band energies     occupation 
      1     -14.8036      2.00000
      2     -14.6255      2.00000
      3     -14.5264      2.00000
      4     -12.6612      2.00000
      5     -12.3191      2.00000
      6     -12.1035      2.00000
      7      -8.9736      2.00000
      8      -8.7787      2.00000
      9      -8.6494      2.00000
     10      -6.7144      2.00000
     11      -6.1534      2.00000
     12      -5.6785      2.00000
     13      -4.9471      2.00000
     14      -4.3462      2.00000
     15      -3.7950      2.00000
     16      -3.7047      2.00000
     17      -3.3692      2.00000
     18      -3.3022      2.00000
     19      -3.2205      2.00000
     20      -3.2160      2.00000
     21      -3.1418      2.00000
     22      -1.9213      2.00000
     23      -1.7012      2.00000
     24      -1.5971      2.00000
     25      -1.5947      2.00000
     26      -1.3226      2.00000
     27      -0.7230      2.00000
     28      -0.6192      2.00000
     29      -0.0828      2.00000
     30       0.4477      2.00000
     31       0.8663      0.00000
     32       1.5784      0.00000
     33       1.6950      0.00000
     34       2.0257      0.00000
     35       2.0437      0.00000
     36       2.3499      0.00000
     37       2.5489      0.00000
     38       2.7457      0.00000
     39       3.3639      0.00000
     40       3.3991      0.00000

 k-point     7 :       0.1250    0.0000    0.1667
  band No.  band energies     occupation 
      1     -14.6225      2.00000
      2     -14.4449      2.00000
      3     -14.3464      2.00000
      4     -12.4775      2.00000
      5     -12.1370      2.00000
      6     -11.9229      2.00000
      7      -9.0407      2.00000
      8      -8.8492      2.00000
      9      -8.7255      2.00000
     10      -6.6294      2.00000
     11      -6.0917      2.00000
     12      -5.6390      2.00000
     13      -5.0146      2.00000
     14      -4.7115      2.00000
     15      -4.4328      2.00000
     16      -4.3542      2.00000
     17      -4.2054      2.00000
     18      -3.5817      2.00000
     19      -3.2848      2.00000
     20      -2.9965      2.00000
     21      -2.9001      2.00000
     22      -2.8425      2.00000
     23      -2.5996      2.00000
     24      -2.3862      2.00000
     25      -1.5819      2.00000
     26      -1.3325      2.00000
     27      -0.7597      2.00000
     28      -0.6192      2.00000
     29      -0.1366      2.00000
     30       0.4729      2.00000
     31       0.9751      0.00000
     32       2.0893      0.00000
     33       2.5105      0.00000
     34       2.7105      0.00000
     35       2.8672      0.00000
     36       2.8766      0.00000
     37       3.0652      0.00000
     38       3.2773      0.00000
     39       3.3803      0.00000
     40       3.7044      0.00000

 k-point     8 :       0.2500    0.0000    0.1667
  band No.  band energies     occupation 
      1     -14.0851      2.00000
      2     -13.9093      2.00000
      3     -13.8127      2.00000
      4     -11.9385      2.00000
      5     -11.6062      2.00000
      6     -11.4004      2.00000
      7      -9.4963      2.00000
      8      -9.3064      2.00000
      9      -9.1898      2.00000
     10      -6.8119      2.00000
     11      -6.3910      2.00000
     12      -6.0595      2.00000
     13      -5.5753      2.00000
     14      -5.4505      2.00000
     15      -5.3029      2.00000
     16      -5.2126      2.00000
     17      -4.7688      2.00000
     18      -4.2713      2.00000
     19      -3.4968      2.00000
     20      -3.1908      2.00000
     21      -2.9307      2.00000
     22      -2.8127      2.00000
     23      -2.5444      2.00000
     24      -2.5015      2.00000
     25      -1.7910      2.00000
     26      -1.7053      2.00000
     27      -1.1770      2.00000
     28      -0.8734      2.00000
     29      -0.4551      2.00000
     30       0.3281      2.00000
     31       1.1953      0.00000
     32       1.8659      0.00000
     33       2.1632      0.00000
     34       2.2754      0.00000
     35       2.4426      0.00000
     36       2.6095      0.00000
     37       2.9596      0.00000
     38       3.2213      0.00000
     39       3.5037      0.00000
     40       4.0336      0.00000

 k-point     9 :       0.3750    0.0000    0.1667
  band No.  band energies     occupation 
      1     -13.2145      2.00000
      2     -13.0421      2.00000
      3     -12.9492      2.00000
      4     -11.2307      2.00000
      5     -10.9903      2.00000
      6     -10.8692      2.00000
      7     -10.4072      2.00000
      8     -10.1268      2.00000
      9      -9.9297      2.00000
     10      -8.1594      2.00000
     11      -7.7907      2.00000
     12      -7.5368      2.00000
     13      -5.5253      2.00000
     14      -5.3229      2.00000
     15      -5.1428      2.00000
     16      -5.0478      2.00000
     17      -4.5230      2.00000
     18      -4.1272      2.00000
     19      -3.4309      2.00000
     20      -3.2096      2.00000
     21      -3.0212      2.00000
     22      -2.8407      2.00000
     23      -2.7816      2.00000
     24      -2.4014      2.00000
     25      -2.2862      2.00000
     26      -1.8433      2.00000
     27      -1.5549      2.00000
     28      -1.0369      2.00000
     29      -0.8003      2.00000
     30      -0.0555      2.00000
     31       1.3352      0.00000
     32       1.7782      0.00000
     33       1.7928      0.00000
     34       2.0906      0.00000
     35       2.1475      0.00000
     36       2.4205      0.00000
     37       2.4630      0.00000
     38       2.6242      0.00000
     39       2.8018      0.00000
     40       2.9108      0.00000

 k-point    10 :       0.5000    0.0000    0.1667
  band No.  band energies     occupation 
      1     -12.0774      2.00000
      2     -12.0774      2.00000
      3     -11.9110      2.00000
      4     -11.9110      2.00000
      5     -11.8249      2.00000
      6     -11.8249      2.00000
      7      -9.6358      2.00000
      8      -9.6358      2.00000
      9      -9.2733      2.00000
     10      -9.2733      2.00000
     11      -9.0319      2.00000
     12      -9.0319      2.00000
     13      -4.9312      2.00000
     14      -4.9312      2.00000
     15      -4.6497      2.00000
     16      -4.6497      2.00000
     17      -4.4664      2.00000
     18      -4.4664      2.00000
     19      -3.6256      2.00000
     20      -3.6256      2.00000
     21      -3.1776      2.00000
     22      -3.1776      2.00000
     23      -2.7262      2.00000
     24      -2.7262      2.00000
     25      -1.9821      2.00000
     26      -1.9821      2.00000
     27      -1.2531      2.00000
     28      -1.2531      2.00000
     29      -0.4816      2.00000
     30      -0.4816      2.00000
     31       1.2649      0.00000
     32       1.2649      0.00000
     33       1.6689      0.00000
     34       1.6689      0.00000
     35       1.9726      0.00000
     36       1.9726      0.00000
     37       2.6204      0.00000
     38       2.6204      0.00000
     39       3.3290      0.00000
     40       3.3490      0.00000

 k-point    11 :       0.0000    0.0000    0.3333
  band No.  band energies     occupation 
      1     -14.3748      2.00000
      2     -14.1918      2.00000
      3     -14.0775      2.00000
      4     -13.0475      2.00000
      5     -12.7858      2.00000
      6     -12.6479      2.00000
      7      -9.1477      2.00000
      8      -8.8396      2.00000
      9      -8.5932      2.00000
     10      -7.7552      2.00000
     11      -7.3098      2.00000
     12      -6.9416      2.00000
     13      -4.5982      2.00000
     14      -3.7421      2.00000
     15      -3.0421      2.00000
     16      -2.8880      2.00000
     17      -2.8082      2.00000
     18      -2.8002      2.00000
     19      -2.7697      2.00000
     20      -2.4103      2.00000
     21      -2.1406      2.00000
     22      -2.0955      2.00000
     23      -1.9823      2.00000
     24      -1.9499      2.00000
     25      -1.8728      2.00000
     26      -1.7941      2.00000
     27      -0.7479      2.00000
     28      -0.1610      2.00000
     29       0.3176      2.00000
     30       0.5882      2.00000
     31       1.3885      0.00000
     32       1.5220      0.00000
     33       2.0428      0.00000
     34       2.1805      0.00000
     35       2.3085      0.00000
     36       2.4178      0.00000
     37       2.5186      0.00000
     38       3.0818      0.00000
     39       3.1935      0.00000
     40       3.2840      0.00000

 k-point    12 :       0.1250    0.0000    0.3333
  band No.  band energies     occupation 
      1     -14.1967      2.00000
      2     -14.0144      2.00000
      3     -13.9009      2.00000
      4     -12.8729      2.00000
      5     -12.6134      2.00000
      6     -12.4773      2.00000
      7      -9.1073      2.00000
      8      -8.8037      2.00000
      9      -8.5654      2.00000
     10      -7.6748      2.00000
     11      -7.2361      2.00000
     12      -6.8761      2.00000
     13      -4.5559      2.00000
     14      -4.4291      2.00000
     15      -4.2002      2.00000
     16      -4.0982      2.00000
     17      -3.6804      2.00000
     18      -3.2961      2.00000
     19      -3.0968      2.00000
     20      -3.0400      2.00000
     21      -2.6822      2.00000
     22      -2.6182      2.00000
     23      -1.9055      2.00000
     24      -1.8460      2.00000
     25      -1.5324      2.00000
     26      -1.5171      2.00000
     27      -0.7048      2.00000
     28      -0.5991      2.00000
     29      -0.0451      2.00000
     30       0.1694      2.00000
     31       1.8675      0.00000
     32       2.6692      0.00000
     33       2.8084      0.00000
     34       3.0242      0.00000
     35       3.2080      0.00000
     36       3.2110      0.00000
     37       3.2871      0.00000
     38       3.2944      0.00000
[...]
     34       2.6645      0.00000
     35       2.6977      0.00000
     36       3.0739      0.00000
     37       3.7429      0.00000
     38       3.9397      0.00000
     39       3.9831      0.00000
     40       4.1779      0.00000

 k-point    15 :       0.5000    0.0000    0.3333
  band No.  band energies     occupation 
      1     -11.8602      2.00000
      2     -11.8602      2.00000
      3     -11.6929      2.00000
      4     -11.6929      2.00000
      5     -11.6043      2.00000
      6     -11.6043      2.00000
      7      -9.7338      2.00000
      8      -9.7338      2.00000
      9      -9.4087      2.00000
     10      -9.4087      2.00000
     11      -9.2075      2.00000
     12      -9.2075      2.00000
     13      -5.2505      2.00000
     14      -5.2505      2.00000
     15      -4.9460      2.00000
     16      -4.9460      2.00000
     17      -4.6998      2.00000
     18      -4.6998      2.00000
     19      -4.4046      2.00000
     20      -4.4046      2.00000
     21      -3.9872      2.00000
     22      -3.9872      2.00000
     23      -3.6249      2.00000
     24      -3.6249      2.00000
     25      -2.0066      2.00000
     26      -2.0066      2.00000
     27      -1.1459      2.00000
     28      -1.1459      2.00000
     29      -0.2541      2.00000
     30      -0.2541      2.00000
     31       1.8095      0.00000
     32       1.8095      0.00000
     33       2.6861      0.00000
     34       2.6861      0.00000
     35       3.2834      0.00000
     36       3.2834      0.00000
     37       3.3392      0.00000
     38       3.3392      0.00000
     39       3.6414      0.00000
     40       3.6414      0.00000

 k-point    16 :       0.0000    0.0000    0.5000
  band No.  band energies     occupation 
      1     -13.8032      2.00000
      2     -13.8032      2.00000
      3     -13.4440      2.00000
      4     -13.4440      2.00000
      5     -13.3811      2.00000
      6     -13.3811      2.00000
      7      -8.6935      2.00000
      8      -8.6935      2.00000
      9      -8.3035      2.00000
     10      -8.3035      2.00000
     11      -7.9836      2.00000
     12      -7.9836      2.00000
     13      -3.8219      2.00000
     14      -3.8219      2.00000
     15      -2.9036      2.00000
     16      -2.9036      2.00000
     17      -2.6421      2.00000
     18      -2.6421      2.00000
     19      -2.3349      2.00000
     20      -2.3349      2.00000
     21      -2.3208      2.00000
     22      -2.3208      2.00000
     23      -1.9643      2.00000
     24      -1.9643      2.00000
     25      -0.9924      2.00000
     26      -0.9924      2.00000
     27      -0.5952      2.00000
     28      -0.5952      2.00000
     29      -0.1493      2.00000
     30      -0.1493      2.00000
     31       1.6390      0.00000
     32       1.6390      0.00000
     33       2.3273      0.00000
     34       2.3273      0.00000
     35       2.5964      0.00000
     36       2.5964      0.00000
     37       3.3131      0.00000
     38       3.3133      0.00000
     39       3.3233      0.00000
     40       3.3233      0.00000

 k-point    17 :       0.1250    0.0000    0.5000
  band No.  band energies     occupation 
      1     -13.6280      2.00000
      2     -13.6280      2.00000
      3     -13.2718      2.00000
      4     -13.2718      2.00000
      5     -13.2098      2.00000
      6     -13.2098      2.00000
      7      -8.6118      2.00000
      8      -8.6118      2.00000
      9      -8.2275      2.00000
     10      -8.2275      2.00000
     11      -7.9152      2.00000
     12      -7.9152      2.00000
     13      -3.9681      2.00000
     14      -3.9681      2.00000
     15      -3.7825      2.00000
     16      -3.7825      2.00000
     17      -3.5794      2.00000
     18      -3.5794      2.00000
     19      -3.5433      2.00000
     20      -3.5433      2.00000
     21      -2.7942      2.00000
     22      -2.7942      2.00000
     23      -1.8930      2.00000
     24      -1.8930      2.00000
     25      -0.9561      2.00000
     26      -0.9561      2.00000
     27      -0.4787      2.00000
     28      -0.4787      2.00000
     29       0.0562      2.00000
     30       0.0562      2.00000
     31       2.4679      0.00000
     32       2.4679      0.00000
     33       2.7511      0.00000
     34       2.7511      0.00000
     35       2.9860      0.00000
     36       2.9860      0.00000
     37       3.0331      0.00000
     38       3.0331      0.00000
     39       3.8484      0.00000
     40       3.8487      0.00000

 k-point    18 :       0.2500    0.0000    0.5000
  band No.  band energies     occupation 
      1     -13.1160      2.00000
      2     -13.1160      2.00000
      3     -12.7717      2.00000
      4     -12.7717      2.00000
      5     -12.7127      2.00000
      6     -12.7127      2.00000
      7      -8.5651      2.00000
      8      -8.5651      2.00000
      9      -8.2102      2.00000
     10      -8.2102      2.00000
     11      -7.9438      2.00000
     12      -7.9438      2.00000
     13      -5.5105      2.00000
     14      -5.5105      2.00000
     15      -5.2116      2.00000
     16      -5.2116      2.00000
     17      -5.0515      2.00000
     18      -5.0515      2.00000
     19      -3.4811      2.00000
     20      -3.4811      2.00000
     21      -2.7052      2.00000
     22      -2.7052      2.00000
     23      -2.0602      2.00000
     24      -2.0602      2.00000
     25      -1.8738      2.00000
     26      -1.8738      2.00000
     27      -1.1606      2.00000
     28      -1.1606      2.00000
     29      -0.3900      2.00000
     30      -0.3900      2.00000
     31       2.6341      0.00000
     32       2.6341      0.00000
     33       3.2728      0.00000
     34       3.2728      0.00000
     35       3.3774      0.00000
     36       3.3774      0.00000
     37       3.6156      0.00000
     38       3.6156      0.00000
     39       4.0812      0.00000
     40       4.0812      0.00000

 k-point    19 :       0.3750    0.0000    0.5000
  band No.  band energies     occupation 
      1     -12.3374      2.00000
      2     -12.3374      2.00000
      3     -12.0334      2.00000
      4     -12.0334      2.00000
      5     -11.9787      2.00000
      6     -11.9787      2.00000
      7      -9.1907      2.00000
      8      -9.1907      2.00000
      9      -8.8545      2.00000
     10      -8.8545      2.00000
     11      -8.6771      2.00000
     12      -8.6771      2.00000
     13      -5.8344      2.00000
     14      -5.8344      2.00000
     15      -5.5029      2.00000
     16      -5.5029      2.00000
     17      -5.2321      2.00000
     18      -5.2321      2.00000
     19      -3.9783      2.00000
     20      -3.9783      2.00000
     21      -3.4837      2.00000
     22      -3.4837      2.00000
     23      -3.1521      2.00000
     24      -3.1521      2.00000
     25      -2.2105      2.00000
     26      -2.2105      2.00000
     27      -1.2687      2.00000
     28      -1.2687      2.00000
     29      -0.3477      2.00000
     30      -0.3477      2.00000
     31       2.1030      0.00000
     32       2.1030      0.00000
     33       3.0731      0.00000
     34       3.0731      0.00000
     35       3.9736      0.00000
     36       3.9736      0.00000
     37       4.0580      0.00000
     38       4.0580      0.00000
     39       4.3134      0.00000
     40       4.3134      0.00000

 k-point    20 :       0.5000    0.0000    0.5000
  band No.  band energies     occupation 
      1     -11.7290      2.00000
      2     -11.7290      2.00000
      3     -11.5612      2.00000
      4     -11.5612      2.00000
      5     -11.4708      2.00000
      6     -11.4708      2.00000
      7      -9.8181      2.00000
      8      -9.8181      2.00000
      9      -9.5142      2.00000
     10      -9.5142      2.00000
     11      -9.3345      2.00000
     12      -9.3345      2.00000
     13      -5.0752      2.00000
     14      -5.0752      2.00000
     15      -5.0649      2.00000
     16      -5.0649      2.00000
     17      -4.6912      2.00000
     18      -4.6912      2.00000
     19      -4.6857      2.00000
     20      -4.6857      2.00000
     21      -4.4210      2.00000
     22      -4.4210      2.00000
     23      -4.3466      2.00000
     24      -4.3466      2.00000
     25      -2.0057      2.00000
     26      -2.0057      2.00000
     27      -1.1074      2.00000
     28      -1.1074      2.00000
     29      -0.1895      2.00000
     30      -0.1895      2.00000
     31       1.6783      0.00000
     32       1.6783      0.00000
     33       2.6756      0.00000
     34       2.6756      0.00000
     35       3.7470      0.00000
     36       3.7470      0.00000
     37       4.6973      0.00000
     38       4.7007      0.00000
     39       4.8414      0.00000
     40       4.8755      0.00000


--------------------------------------------------------------------------------------------------------


 soft charge-density along one line, spin component           1
         0         1         2         3         4         5         6         7         8         9
 total charge-density along one line
 
 pseudopotential strength for first ion, spin component:           1
 29.686  37.032   0.035  -0.033   0.000   0.055  -0.051   0.000
 37.032  46.200   0.044  -0.041   0.000   0.068  -0.063   0.000
  0.035   0.044   6.554   0.006  -0.000  10.135   0.009  -0.000
 -0.033  -0.041   0.006   6.557   0.000   0.009  10.141   0.000
  0.000   0.000  -0.000   0.000   6.562  -0.000   0.000  10.147
  0.055   0.068  10.135   0.009  -0.000  15.693   0.014  -0.000
 -0.051  -0.063   0.009  10.141   0.000   0.014  15.701   0.000
  0.000   0.000  -0.000   0.000  10.147  -0.000   0.000  15.711
 total augmentation occupancy for first ion, spin component:           1
  8.297  -4.734   1.845  -1.941  -0.000  -0.595   0.648   0.000
 -4.734   3.442  -1.582   1.647   0.000   0.441  -0.475  -0.000
  1.845  -1.582   3.110   0.198   0.000  -0.820  -0.162   0.000
 -1.941   1.647   0.198   3.266   0.000  -0.160  -0.921   0.000
  0.000   0.000   0.000   0.000   3.393   0.000   0.000  -1.024
 -0.595   0.441  -0.820  -0.160   0.000   0.259   0.069   0.000
  0.648  -0.475  -0.162  -0.921   0.000   0.069   0.298   0.000
  0.000   0.000   0.000   0.000  -1.024   0.000   0.000   0.339


------------------------ aborting loop because EDIFF is reached ----------------------------------------


 


 total charge     
 
# of ion       s       p       d       tot
------------------------------------------
    1        1.083   1.374   0.000   2.456
    2        1.083   1.374   0.000   2.456
    3        1.087   1.372   0.000   2.459
    4        1.087   1.372   0.000   2.459
    5        1.088   1.371   0.000   2.459
    6        1.088   1.371   0.000   2.459
    7        1.088   1.371   0.000   2.459
    8        1.088   1.371   0.000   2.459
    9        1.087   1.372   0.000   2.459
   10        1.087   1.372   0.000   2.459
   11        1.083   1.374   0.000   2.456
   12        1.083   1.374   0.000   2.456
--------------------------------------------------
tot         13.032  16.465   0.000  29.497
 
    CHARGE:  cpu time    0.0411: real time    0.0411
    FORLOC:  cpu time    0.0012: real time    0.0012
    FORNL :  cpu time    0.1745: real time    0.1745
    STRESS:  cpu time    0.2701: real time    0.2702
    FORCOR:  cpu time    0.0131: real time    0.0131
    FORHAR:  cpu time    0.0040: real time    0.0040
    MIXING:  cpu time    0.0011: real time    0.0011
    OFIELD:  cpu time    0.0000: real time    0.0000

  DFT-D2 method for vdW energy calculation
  -------------------------------------------------------------------

  Parameters of vdW forcefield:
         C6(Jnm^6/mol)     R0(A)
   -----------------------------
   P        7.840          1.705

  IVDW =  10
  VDW_RADIUS =    50.000 A
  VDW_S6 =     0.750
  VDW_SR =     1.000
  VDW_D =    20.000
  LVDW_EWALD = F

  Number of pair interactions contributing to vdW energy:   88350
  Edisp (eV):   -2.08565
    FORVDW:  cpu time    0.0521: real time    0.1045

  FORCE on cell =-STRESS in cart. coord.  units (eV):
  Direction    XX          YY          ZZ          XY          YZ          ZX
  --------------------------------------------------------------------------------------
  Alpha Z    30.28014    30.28014    30.28014
  Ewald   16590.51958-17991.47779 16385.24763    -0.00000     0.00000     0.00000
  Hartree 16900.88407-16745.09133 16820.11854    -0.00000     0.00000    -0.00000
  E(xc)    -201.84355  -202.64645  -202.05038     0.00000     0.00000    -0.00000
  Local  -34445.01970 33745.56869-34181.16007    -0.00000    -0.00000    -0.00000
  n-local   681.48271   677.44402   676.48884     0.00000    -0.00000     1.91971
  augment  -126.68812  -130.51343  -129.28545     0.00000     0.00000    -0.00000
  Kinetic   569.16171   624.03228   602.13281     0.00000    -0.00000     7.60365
  Fock        0.00000     0.00000     0.00000     0.00000     0.00000     0.00000
  vdW        -0.39704    -1.16456    -0.96856    -0.00000    -0.00000     0.00000
  -------------------------------------------------------------------------------------
  Total      -1.62020     6.43158     0.80350     0.00000     0.00000     0.00000
  in kB      -5.44436    21.61203     2.69999     0.00000     0.00000     0.00000
  external pressure =        6.29 kB  Pullay stress =        0.00 kB


 VOLUME and BASIS-vectors are now :
 -----------------------------------------------------------------------------
  energy-cutoff  :      400.00
  volume of cell :      476.80
      direct lattice vectors                 reciprocal lattice vectors
     3.342886000  0.000000000  0.000000000     0.299142717  0.000000000  0.000000000
     0.000000000 32.602409000  0.000000000     0.000000000  0.030672580  0.000000000
     0.000000000  0.000000000  4.374831000     0.000000000  0.000000000  0.228580258

  length of vectors
     3.342886000 32.602409000  4.374831000     0.299142717  0.030672580  0.228580258


 FORCES acting on ions
    electron-ion (+dipol)            ewald-force                    non-local-force                 convergence-correction
 -----------------------------------------------------------------------------------------------
   0.986E-15 0.822E+03 -.288E+02   0.141E-14 -.828E+03 0.340E+02   -.278E-16 0.562E+01 -.515E+01   0.746E-15 0.202E-04 -.254E-04
   0.458E-14 0.822E+03 0.288E+02   -.486E-14 -.828E+03 -.340E+02   0.278E-16 0.562E+01 0.515E+01   -.729E-15 0.202E-04 0.254E-04
   -.138E-15 0.463E+03 0.311E+02   0.143E-14 -.458E+03 -.368E+02   0.278E-16 -.540E+01 0.565E+01   0.478E-15 0.368E-04 -.995E-05
   0.671E-15 0.463E+03 -.311E+02   -.914E-14 -.458E+03 0.368E+02   -.555E-16 -.540E+01 -.565E+01   -.125E-14 0.368E-04 0.995E-05
   0.282E-14 0.179E+03 -.310E+02   0.131E-15 -.184E+03 0.367E+02   0.278E-16 0.540E+01 -.561E+01   -.273E-14 -.362E-04 -.510E-05
   0.587E-15 0.179E+03 0.310E+02   -.493E-14 -.184E+03 -.367E+02   -.555E-16 0.540E+01 0.561E+01   0.249E-14 -.362E-04 0.510E-05
   0.320E-14 -.179E+03 0.310E+02   0.259E-14 0.184E+03 -.367E+02   -.278E-16 -.540E+01 0.561E+01   -.324E-14 0.362E-04 0.510E-05
   -.299E-15 -.179E+03 -.310E+02   -.643E-14 0.184E+03 0.367E+02   0.555E-16 -.540E+01 -.561E+01   0.355E-14 0.362E-04 -.510E-05
   -.585E-15 -.463E+03 -.311E+02   0.129E-14 0.458E+03 0.368E+02   -.278E-16 0.540E+01 -.565E+01   0.837E-15 -.368E-04 0.995E-05
   0.558E-14 -.463E+03 0.311E+02   -.223E-14 0.458E+03 -.368E+02   0.555E-16 0.540E+01 0.565E+01   -.721E-15 -.368E-04 -.995E-05
   -.781E-15 -.822E+03 0.288E+02   0.131E-14 0.828E+03 -.340E+02   0.278E-16 -.562E+01 0.515E+01   0.719E-15 -.202E-04 0.254E-04
   0.553E-14 -.822E+03 -.288E+02   -.650E-14 0.828E+03 0.340E+02   -.278E-16 -.562E+01 -.515E+01   -.101E-14 -.202E-04 -.254E-04
 -----------------------------------------------------------------------------------------------
   0.222E-13 0.419E-11 0.436E-10   -.259E-13 0.227E-12 0.000E+00   0.000E+00 0.266E-14 0.266E-14   -.863E-15 -.264E-11 -.237E-13
 
 
 POSITION                                       TOTAL-FORCE (eV/Angst)
 -----------------------------------------------------------------------------------
      0.00000     10.00001      4.02014         0.000000     -0.085415     -0.094687
      1.67144     10.00001      2.54211         0.000000     -0.085415      0.094687
      0.00000     12.14332      0.35469         0.000000     -0.313053     -0.069606
      1.67144     12.14332      1.83272         0.000000     -0.313053      0.069606
      1.67144     15.22953      1.83272         0.000000      0.215481      0.069658
      0.00000     15.22953      0.35469         0.000000      0.215481     -0.069658
      1.67144     17.37288      2.54211         0.000000     -0.215481     -0.069658
      0.00000     17.37288      4.02014         0.000000     -0.215481      0.069658
      0.00000     20.45909      4.02014        -0.000000      0.313053      0.069606
      1.67144     20.45909      2.54211         0.000000      0.313053     -0.069606
      0.00000     22.60240      0.35469         0.000000      0.085415      0.094687
      1.67144     22.60240      1.83272        -0.000000      0.085415     -0.094687
 -----------------------------------------------------------------------------------
    total drift:                               -0.000000      0.000000      0.000000


--------------------------------------------------------------------------------------------------------



  FREE ENERGIE OF THE ION-ELECTRON SYSTEM (eV)
  ---------------------------------------------------
  free  energy   TOTEN  =       -65.86522393 eV

  energy  without entropy=      -65.86522393  energy(sigma->0) =      -65.86522393
 


--------------------------------------------------------------------------------------------------------


    POTLOK:  cpu time    0.0792: real time    0.0939


--------------------------------------------------------------------------------------------------------


 writing wavefunctions
     LOOP+:  cpu time   23.0924: real time   23.2336
    4ORBIT:  cpu time    0.0000: real time    0.0000
 


 total charge     
 
# of ion       s       p       d       tot
------------------------------------------
    1        1.083   1.374   0.000   2.456
    2        1.083   1.374   0.000   2.456
    3        1.087   1.372   0.000   2.459
    4        1.087   1.372   0.000   2.459
    5        1.088   1.371   0.000   2.459
    6        1.088   1.371   0.000   2.459
    7        1.088   1.371   0.000   2.459
    8        1.088   1.371   0.000   2.459
    9        1.087   1.372   0.000   2.459
   10        1.087   1.372   0.000   2.459
   11        1.083   1.374   0.000   2.456
   12        1.083   1.374   0.000   2.456
--------------------------------------------------
tot         13.032  16.465   0.000  29.497
 

 total amount of memory used by VASP MPI-rank0    37113. kBytes
=======================================================================

   base      :      30000. kBytes
   nonl-proj :       1636. kBytes
   fftplans  :        792. kBytes
   grid      :       1070. kBytes
   one-center:          6. kBytes
   wavefun   :       3609. kBytes
 
  
  
 General timing and accounting informations for this job:
 ========================================================
  
                  Total CPU time used (sec):       29.376
                            User time (sec):       26.962
                          System time (sec):        2.414
                         Elapsed time (sec):       30.281
  
                   Maximum memory used (kb):      108852.
                   Average memory used (kb):           0.
  
                          Minor page faults:        39897
                          Major page faults:            0
                 Voluntary context switches:         2652
