<?xml version="1.0" encoding="ISO-8859-1"?>
<modeling>
 <generator>
  <i name="program" type="string">vasp </i>
  <i name="version" type="string">5.4.4.18Apr17-6-g9f103f2a35  </i>
  <i name="subversion" type="string">(build Jun 20 2017 18:00:50) complex            parallel </i>
  <i name="platform" type="string">LinuxIFC </i>
  <i name="date" type="string">2018 03 22 </i>
  <i name="time" type="string">15:21:40 </i>
 </generator>
 <incar>
  <i type="string" name="SYSTEM"> Generic Input</i>
  <i type="int" name="ISTART">     1</i>
  <i type="string" name="PREC">normal    ! precision level</i>
  <i type="int" name="IALGO">    53</i>
  <i type="string" name="ALGO"> Normal    ! SCF minimisation algorithm</i>
  <i type="int" name="INIWAV">     1</i>
  <i type="int" name="NELM">   200</i>
  <i type="int" name="NELMIN">     2</i>
  <i type="int" name="IBRION">     2</i>
  <i name="EDIFF">      0.00001000</i>
  <i name="EDIFFG">     -0.02000000</i>
  <i type="int" name="NSW">     0</i>
  <i type="int" name="ISIF">     3</i>
  <i type="int" name="IWAVPR">    11</i>
  <i type="int" name="NBLOCK">     1</i>
  <i type="int" name="KBLOCK">    40</i>
  <i name="ENCUT">    400.00000000</i>
  <i type="int" name="NEDOS">  2000</i>
  <i type="int" name="ISMEAR">     0</i>
  <i name="SIGMA">      0.01000000</i>
  <i type="int" name="NWRITE">     2</i>
  <i type="logical" name="LVHAR"> T  </i>
  <i type="int" name="LORBIT">    11</i>
  <i type="logical" name="LASPH"> T  </i>
  <i type="int" name="ICORELEVEL">     1</i>
  <v type="int" name="KPOINT_BSE">    -1     0     0     0</v>
  <i type="int" name="NELM">   200</i>
  <i type="string" name="GGA"> PE        ! PBEsol exchange-correlation</i>
  <i type="logical" name="LASPH"> T  </i>
 </incar>
 <structure name="primitive_cell" >
  <crystal>
   <varray name="basis" >
    <v>       3.34288600       0.00000000       0.00000000 </v>
    <v>       0.00000000      32.60240900       0.00000000 </v>
    <v>       0.00000000       0.00000000       4.37483100 </v>
   </varray>
   <i name="volume">    476.79592902 </i>
   <varray name="rec_basis" >
    <v>       0.29914272       0.00000000       0.00000000 </v>
    <v>       0.00000000       0.03067258       0.00000000 </v>
    <v>       0.00000000       0.00000000       0.22858026 </v>
   </varray>
  </crystal>
  <varray name="positions" >
   <v>       0.00000000       0.30672600      -0.08107600 </v>
   <v>      -0.50000000       0.30672600      -0.41892400 </v>
   <v>       0.00000000       0.37246700       0.08107600 </v>
   <v>      -0.50000000       0.37246700       0.41892400 </v>
   <v>       0.00000000       0.46712900       0.08107600 </v>
   <v>      -0.50000000       0.46712900       0.41892400 </v>
   <v>       0.00000000      -0.46712900      -0.08107600 </v>
   <v>      -0.50000000      -0.46712900      -0.41892400 </v>
   <v>       0.00000000      -0.37246700      -0.08107600 </v>
   <v>      -0.50000000      -0.37246700      -0.41892400 </v>
   <v>       0.00000000      -0.30672600       0.08107600 </v>
   <v>      -0.50000000      -0.30672600       0.41892400 </v>
  </varray>
 </structure>
 <varray name="primitive_index" >
  <v type="int" >        1 </v>
  <v type="int" >        2 </v>
  <v type="int" >        3 </v>
  <v type="int" >        4 </v>
  <v type="int" >        6 </v>
  <v type="int" >        5 </v>
  <v type="int" >        8 </v>
  <v type="int" >        7 </v>
  <v type="int" >        9 </v>
  <v type="int" >       10 </v>
  <v type="int" >       11 </v>
  <v type="int" >       12 </v>
 </varray>
 <kpoints>
  <generation param="Gamma">
   <v type="int" name="divisions">       8        1        6 </v>
   <v name="usershift">      0.00000000       0.00000000       0.00000000 </v>
   <v name="genvec1">      0.12500000       0.00000000       0.00000000 </v>
   <v name="genvec2">      0.00000000       1.00000000       0.00000000 </v>
   <v name="genvec3">      0.00000000       0.00000000       0.16666667 </v>
   <v name="shift">      0.00000000       0.00000000       0.00000000 </v>
  </generation>
  <varray name="kpointlist" >
   <v>       0.00000000       0.00000000       0.00000000 </v>
   <v>       0.12500000       0.00000000       0.00000000 </v>
   <v>       0.25000000       0.00000000       0.00000000 </v>
   <v>       0.37500000       0.00000000       0.00000000 </v>
   <v>       0.50000000       0.00000000       0.00000000 </v>
   <v>       0.00000000       0.00000000       0.16666667 </v>
   <v>       0.12500000       0.00000000       0.16666667 </v>
   <v>       0.25000000       0.00000000       0.16666667 </v>
   <v>       0.37500000       0.00000000       0.16666667 </v>
   <v>       0.50000000       0.00000000       0.16666667 </v>
   <v>       0.00000000       0.00000000       0.33333333 </v>
   <v>       0.12500000       0.00000000       0.33333333 </v>
   <v>       0.25000000       0.00000000       0.33333333 </v>
   <v>       0.37500000       0.00000000       0.33333333 </v>
   <v>       0.50000000       0.00000000       0.33333333 </v>
   <v>       0.00000000       0.00000000       0.50000000 </v>
   <v>       0.12500000       0.00000000       0.50000000 </v>
   <v>       0.25000000       0.00000000       0.50000000 </v>
   <v>       0.37500000       0.00000000       0.50000000 </v>
   <v>       0.50000000       0.00000000       0.50000000 </v>
  </varray>
  <varray name="weights" >
   <v>       0.02083333 </v>
   <v>       0.04166667 </v>
   <v>       0.04166667 </v>
   <v>       0.04166667 </v>
   <v>       0.02083333 </v>
   <v>       0.04166667 </v>
   <v>       0.08333333 </v>
   <v>       0.08333333 </v>
   <v>       0.08333333 </v>
   <v>       0.04166667 </v>
   <v>       0.04166667 </v>
   <v>       0.08333333 </v>
   <v>       0.08333333 </v>
   <v>       0.08333333 </v>
   <v>       0.04166667 </v>
   <v>       0.02083333 </v>
   <v>       0.04166667 </v>
   <v>       0.04166667 </v>
   <v>       0.04166667 </v>
   <v>       0.02083333 </v>
  </varray>
 </kpoints>
 <parameters>
  <separator name="general" >
   <i type="string" name="SYSTEM">Generic Input</i>
   <i type="logical" name="LCOMPAT"> F  </i>
  </separator>
  <separator name="electronic" >
   <i type="string" name="PREC">normal</i>
   <i name="ENMAX">    400.00000000</i>
   <i name="ENAUG">    342.92400000</i>
   <i name="EDIFF">      0.00001000</i>
   <i type="int" name="IALGO">    38</i>
   <i type="int" name="IWAVPR">    11</i>
   <i type="int" name="NBANDS">    40</i>
   <i name="NELECT">     60.00000000</i>
   <i type="int" name="TURBO">     0</i>
   <i type="int" name="IRESTART">     0</i>
   <i type="int" name="NREBOOT">     0</i>
   <i type="int" name="NMIN">     0</i>
   <i name="EREF">      0.00000000</i>
   <separator name="electronic smearing" >
    <i type="int" name="ISMEAR">     0</i>
    <i name="SIGMA">      0.01000000</i>
    <i name="KSPACING">      0.50000000</i>
    <i type="logical" name="KGAMMA"> T  </i>
   </separator>
   <separator name="electronic projectors" >
    <i type="logical" name="LREAL"> F  </i>
    <v name="ROPT">      0.00000000</v>
    <i type="int" name="LMAXPAW">  -100</i>
    <i type="int" name="LMAXMIX">     2</i>
    <i type="logical" name="NLSPLINE"> F  </i>
   </separator>
   <separator name="electronic startup" >
    <i type="int" name="ISTART">     0</i>
    <i type="int" name="ICHARG">     2</i>
    <i type="int" name="INIWAV">     1</i>
   </separator>
   <separator name="electronic spin" >
    <i type="int" name="ISPIN">     1</i>
    <i type="logical" name="LNONCOLLINEAR"> F  </i>
    <v name="MAGMOM">      1.00000000      1.00000000      1.00000000      1.00000000      1.00000000      1.00000000      1.00000000      1.00000000      1.00000000      1.00000000      1.00000000      1.00000000</v>
    <i name="NUPDOWN">     -1.00000000</i>
    <i type="logical" name="LSORBIT"> F  </i>
    <v name="SAXIS">      0.00000000      0.00000000      1.00000000</v>
    <i type="logical" name="LSPIRAL"> F  </i>
    <v name="QSPIRAL">      0.00000000      0.00000000      0.00000000</v>
    <i type="logical" name="LZEROZ"> F  </i>
   </separator>
   <separator name="electronic exchange-correlation" >
    <i type="logical" name="LASPH"> T  </i>
    <i type="logical" name="LMETAGGA"> F  </i>
   </separator>
   <separator name="electronic convergence" >
    <i type="int" name="NELM">   200</i>
    <i type="int" name="NELMDL">     0</i>
    <i type="int" name="NELMIN">     2</i>
    <i name="ENINI">    400.00000000</i>
    <separator name="electronic convergence detail" >
     <i type="logical" name="LDIAG"> T  </i>
     <i type="logical" name="LSUBROT"> F  </i>
     <i name="WEIMIN">      0.00000000</i>
     <i name="EBREAK">      0.00000006</i>
     <i name="DEPER">      0.30000000</i>
     <i type="int" name="NRMM">     4</i>
     <i name="TIME">      0.40000000</i>
    </separator>
   </separator>
   <separator name="electronic mixer" >
    <i name="AMIX">      0.40000000</i>
    <i name="BMIX">      1.00000000</i>
    <i name="AMIN">      0.10000000</i>
    <i name="AMIX_MAG">      1.60000000</i>
    <i name="BMIX_MAG">      1.00000000</i>
    <separator name="electronic mixer details" >
     <i type="int" name="IMIX">     4</i>
     <i type="logical" name="MIXFIRST"> F  </i>
     <i type="int" name="MAXMIX">   -45</i>
     <i name="WC">    100.00000000</i>
     <i type="int" name="INIMIX">     1</i>
     <i type="int" name="MIXPRE">     1</i>
     <i type="int" name="MREMOVE">     5</i>
    </separator>
   </separator>
   <separator name="electronic dipolcorrection" >
    <i type="logical" name="LDIPOL"> F  </i>
    <i type="logical" name="LMONO"> F  </i>
    <i type="int" name="IDIPOL">     0</i>
    <i name="EPSILON">      1.00000000</i>
    <v name="DIPOL">   -100.00000000   -100.00000000   -100.00000000</v>
    <i name="EFIELD">      0.00000000</i>
   </separator>
  </separator>
  <separator name="grids" >
   <i type="int" name="NGX">    16</i>
   <i type="int" name="NGY">   160</i>
   <i type="int" name="NGZ">    24</i>
   <i type="int" name="NGXF">    32</i>
   <i type="int" name="NGYF">   320</i>
   <i type="int" name="NGZF">    48</i>
   <i type="logical" name="ADDGRID"> F  </i>
  </separator>
  <separator name="ionic" >
   <i type="int" name="NSW">     0</i>
   <i type="int" name="IBRION">    -1</i>
   <i type="int" name="MDALGO">     0</i>
   <i type="int" name="ISIF">     3</i>
   <i name="PSTRESS">      0.00000000</i>
   <i name="EDIFFG">     -0.02000000</i>
   <i type="int" name="NFREE">     1</i>
   <i name="POTIM">      0.50000000</i>
   <i name="SMASS">     -3.00000000</i>
   <i name="SCALEE">      1.00000000</i>
  </separator>
  <separator name="ionic md" >
   <i name="TEBEG">      0.00010000</i>
   <i name="TEEND">      0.00010000</i>
   <i type="int" name="NBLOCK">     1</i>
   <i type="int" name="KBLOCK">     1</i>
   <i type="int" name="NPACO">   256</i>
   <i name="APACO">     16.00000000</i>
  </separator>
  <separator name="symmetry" >
   <i type="int" name="ISYM">     2</i>
   <i name="SYMPREC">      0.00001000</i>
  </separator>
  <separator name="dos" >
   <i type="int" name="LORBIT">    11</i>
   <v name="RWIGS">     -1.00000000</v>
   <i type="int" name="NEDOS">  2000</i>
   <i name="EMIN">     10.00000000</i>
   <i name="EMAX">    -10.00000000</i>
   <i name="EFERMI">      0.00000000</i>
  </separator>
  <separator name="writing" >
   <i type="int" name="NWRITE">     2</i>
   <i type="logical" name="LWAVE"> T  </i>
   <i type="logical" name="LDOWNSAMPLE"> F  </i>
   <i type="logical" name="LCHARG"> T  </i>
   <i type="logical" name="LPARD"> F  </i>
   <i type="logical" name="LVTOT"> F  </i>
   <i type="logical" name="LVHAR"> T  </i>
   <i type="logical" name="LELF"> F  </i>
   <i type="logical" name="LOPTICS"> F  </i>
   <v name="STM">      0.00000000      0.00000000      0.00000000      0.00000000      0.00000000      0.00000000      0.00000000</v>
  </separator>
  <separator name="performance" >
   <i type="int" name="NPAR">     4</i>
   <i type="int" name="NSIM">     4</i>
   <i type="int" name="NBLK">    -1</i>
   <i type="logical" name="LPLANE"> T  </i>
   <i type="logical" name="LSCALAPACK"> T  </i>
   <i type="logical" name="LSCAAWARE"> F  </i>
   <i type="logical" name="LSCALU"> F  </i>
   <i type="logical" name="LASYNC"> F  </i>
   <i type="logical" name="LORBITALREAL"> F  </i>
  </separator>
  <separator name="miscellaneous" >
   <i type="int" name="IDIOT">     3</i>
   <i type="int" name="ISPECIAL">     0</i>
   <i type="logical" name="LMUSIC"> F  </i>
   <v name="POMASS">     30.97400000</v>
   <v name="DARWINR">      0.00000000</v>
   <v name="DARWINV">      1.00000000</v>
   <i type="logical" name="LCORR"> T  </i>
  </separator>
  <i type="logical" name="GGA_COMPAT"> T  </i>
  <i type="logical" name="LBERRY"> F  </i>
  <i type="int" name="ICORELEVEL">     1</i>
  <i type="int" name="CLNT">     1</i>
  <i type="int" name="CLN">     1</i>
  <i type="int" name="CLL">     0</i>
  <i name="CLZ">      0.00000000</i>
  <i type="logical" name="LDAU"> F  </i>
  <i type="int" name="I_CONSTRAINED_M">     0</i>
  <separator name="electronic exchange-correlation" >
   <i type="string" name="GGA">PE</i>
   <i type="int" name="VOSKOWN">     0</i>
   <i type="logical" name="LHFCALC"> F  </i>
   <i type="string" name="PRECFOCK"></i>
   <i type="logical" name="LSYMGRAD"> F  </i>
   <i type="logical" name="LHFONE"> F  </i>
   <i type="logical" name="LRHFCALC"> F  </i>
   <i type="logical" name="LTHOMAS"> F  </i>
   <i type="logical" name="LMODELHF"> F  </i>
   <i name="ENCUT4O">     -1.00000000</i>
   <i type="int" name="EXXOEP">     0</i>
   <i type="int" name="FOURORBIT">     0</i>
   <i name="AEXX">      0.00000000</i>
   <i name="HFALPHA">      0.00000000</i>
   <i name="MCALPHA">      0.00000000</i>
   <i name="ALDAX">      1.00000000</i>
   <i name="AGGAX">      1.00000000</i>
   <i name="ALDAC">      1.00000000</i>
   <i name="AGGAC">      1.00000000</i>
   <i type="int" name="NKREDX">     1</i>
   <i type="int" name="NKREDY">     1</i>
   <i type="int" name="NKREDZ">     1</i>
   <i type="logical" name="SHIFTRED"> F  </i>
   <i type="logical" name="ODDONLY"> F  </i>
   <i type="logical" name="EVENONLY"> F  </i>
   <i type="int" name="LMAXFOCK">     0</i>
   <i type="int" name="NMAXFOCKAE">     0</i>
   <i type="logical" name="LFOCKAEDFT"> F  </i>
   <i name="HFSCREEN">      0.00000000</i>
   <i name="HFSCREENC">      0.00000000</i>
   <i type="int" name="NBANDSGWLOW">     0</i>
  </separator>
  <separator name="vdW DFT" >
   <i type="logical" name="LUSE_VDW"> F  </i>
   <i name="Zab_VDW">     -0.84910000</i>
   <i name="PARAM1">      0.12340000</i>
   <i name="PARAM2">      1.00000000</i>
   <i name="PARAM3">      0.00000000</i>
  </separator>
  <separator name="model GW" >
   <i type="int" name="MODEL_GW">     0</i>
   <i name="MODEL_EPS0">     23.83979645</i>
   <i name="MODEL_ALPHA">      1.00000000</i>
  </separator>
  <separator name="linear response parameters" >
   <i type="logical" name="LEPSILON"> F  </i>
   <i type="logical" name="LRPA"> F  </i>
   <i type="logical" name="LNABLA"> F  </i>
   <i type="logical" name="LVEL"> F  </i>
   <i type="int" name="KINTER">     0</i>
   <i name="CSHIFT">      0.10000000</i>
   <i name="OMEGAMAX">     -1.00000000</i>
   <i name="DEG_THRESHOLD">      0.00200000</i>
   <i name="RTIME">     -0.10000000</i>
   <i name="WPLASMAI">      0.00000000</i>
   <v name="DFIELD">      0.00000000      0.00000000      0.00000000</v>
   <v name="WPLASMA">      0.00000000      0.00000000      0.00000000      0.00000000      0.00000000      0.00000000      0.00000000      0.00000000      0.00000000</v>
  </separator>
  <separator name="orbital magnetization" >
   <i type="logical" name="NUCIND"> F  </i>
   <v name="MAGPOS">      0.00000000      0.00000000      0.00000000</v>
   <i type="logical" name="LNICSALL"> T  </i>
   <i type="logical" name="ORBITALMAG"> F  </i>
   <i type="logical" name="LMAGBLOCH"> F  </i>
   <i type="logical" name="LCHIMAG"> F  </i>
   <i type="logical" name="LGAUGE"> T  </i>
   <i type="int" name="MAGATOM">     0</i>
   <v name="MAGDIPOL">      0.00000000      0.00000000      0.00000000</v>
   <v name="AVECCONST">      0.00000000      0.00000000      0.00000000</v>
  </separator>
  <separator name="response functions" >
   <i type="logical" name="LADDER"> F  </i>
   <i type="logical" name="LRPAFORCE"> F  </i>
   <i type="logical" name="LFXC"> F  </i>
   <i type="logical" name="LHARTREE"> T  </i>
   <i type="int" name="IBSE">     0</i>
   <v type="int" name="KPOINT">    -1     0     0     0</v>
   <i type="logical" name="LTCTE"> F  </i>
   <i type="logical" name="LTETE"> F  </i>
   <i type="logical" name="LTRIPLET"> F  </i>
   <i type="logical" name="LFXCEPS"> F  </i>
   <i type="logical" name="LFXHEG"> F  </i>
   <i type="int" name="NATURALO">     2</i>
   <i type="logical" name="L2ORDER"> F  </i>
   <i type="logical" name="LMP2LT"> F  </i>
   <i type="logical" name="LUSEW"> F  </i>
   <i name="ENCUTGW">     -2.00000000</i>
   <i name="ENCUTGWSOFT">     -2.00000000</i>
   <i name="ENCUTLF">     -1.00000000</i>
   <i type="int" name="LMAXMP2">    -1</i>
   <i name="SCISSOR">      0.00000000</i>
   <i type="int" name="NOMEGA">     0</i>
   <i type="int" name="NOMEGAR">     0</i>
   <i type="int" name="NBANDSGW">    -1</i>
   <i type="int" name="NBANDSO">    -1</i>
   <i type="int" name="NBANDSV">    -1</i>
   <i type="int" name="NELM">   200</i>
   <i type="int" name="NELMHF">     1</i>
   <i type="int" name="DIM">     3</i>
   <i type="int" name="ANTIRES">     0</i>
   <i name="OMEGAMAX">    -30.00000000</i>
   <i name="OMEGAMIN">    -30.00000000</i>
   <i name="OMEGATL">   -200.00000000</i>
   <i type="int" name="OMEGAGRID">   140</i>
   <i name="CSHIFT">     -0.10000000</i>
   <i type="logical" name="SELFENERGY"> F  </i>
   <i type="logical" name="LSPECTRAL"> F  </i>
   <i type="logical" name="LSPECTRALGW"> F  </i>
   <i type="logical" name="LSINGLES"> F  </i>
   <i type="logical" name="LFERMIGW"> F  </i>
   <i type="logical" name="ODDONLYGW"> F  </i>
   <i type="logical" name="EVENONLYGW"> F  </i>
   <i type="int" name="NKREDLFX">     1</i>
   <i type="int" name="NKREDLFY">     1</i>
   <i type="int" name="NKREDLFZ">     1</i>
   <i type="int" name="MAXMEM">  2800</i>
   <i type="int" name="TELESCOPE">     0</i>
   <i type="int" name="TAUPAR">     1</i>
   <i type="int" name="OMEGAPAR">    -1</i>
   <i name="LAMBDA">      1.00000000</i>
  </separator>
  <separator name="External order field" >
   <i name="OFIELD_KAPPA">      0.00000000</i>
   <v name="OFIELD_K">      0.00000000      0.00000000      0.00000000</v>
   <i name="OFIELD_Q6_NEAR">      0.00000000</i>
   <i name="OFIELD_Q6_FAR">      0.00000000</i>
   <i name="OFIELD_A">      0.00000000</i>
  </separator>
 </parameters>
 <atominfo>
  <atoms>      12 </atoms>
  <types>       1 </types>
  <array name="atoms" >
   <dimension dim="1">ion</dimension>
   <field type="string">element</field>
   <field type="int">atomtype</field>
   <set>
    <rc><c>P </c><c>   1</c></rc>
    <rc><c>P </c><c>   1</c></rc>
    <rc><c>P </c><c>   1</c></rc>
    <rc><c>P </c><c>   1</c></rc>
    <rc><c>P </c><c>   1</c></rc>
    <rc><c>P </c><c>   1</c></rc>
    <rc><c>P </c><c>   1</c></rc>
    <rc><c>P </c><c>   1</c></rc>
    <rc><c>P </c><c>   1</c></rc>
    <rc><c>P </c><c>   1</c></rc>
    <rc><c>P </c><c>   1</c></rc>
    <rc><c>P </c><c>   1</c></rc>
   </set>
  </array>
  <array name="atomtypes" >
   <dimension dim="1">type</dimension>
   <field type="int">atomspertype</field>
   <field type="string">element</field>
   <field>mass</field>
   <field>valence</field>
   <field type="string">pseudopotential</field>
   <set>
    <rc><c>  12</c><c>P </c><c>     30.97400000</c><c>      5.00000000</c><c>  PAW_PBE P 06Sep2000                   </c></rc>
   </set>
  </array>
 </atominfo>
 <structure name="initialpos" >
  <crystal>
   <varray name="basis" >
    <v>       3.34288600       0.00000000       0.00000000 </v>
    <v>       0.00000000      32.60240900       0.00000000 </v>
    <v>       0.00000000       0.00000000       4.37483100 </v>
   </varray>
   <i name="volume">    476.79592902 </i>
   <varray name="rec_basis" >
    <v>       0.29914272       0.00000000       0.00000000 </v>
    <v>       0.00000000       0.03067258       0.00000000 </v>
    <v>       0.00000000       0.00000000       0.22858026 </v>
   </varray>
  </crystal>
  <varray name="positions" >
   <v>       0.00000000       0.30672600       0.91892400 </v>
   <v>       0.50000000       0.30672600       0.58107600 </v>
   <v>       0.00000000       0.37246700       0.08107600 </v>
   <v>       0.50000000       0.37246700       0.41892400 </v>
   <v>       0.50000000       0.46712900       0.41892400 </v>
   <v>       0.00000000       0.46712900       0.08107600 </v>
   <v>       0.50000000       0.53287100       0.58107600 </v>
   <v>       0.00000000       0.53287100       0.91892400 </v>
   <v>       0.00000000       0.62753300       0.91892400 </v>
   <v>       0.50000000       0.62753300       0.58107600 </v>
   <v>       0.00000000       0.69327400       0.08107600 </v>
   <v>       0.50000000       0.69327400       0.41892400 </v>
  </varray>
 </structure>
 <calculation>
  <scstep>
   <time name="dav">    0.85    0.85</time>
   <time name="total">    0.94    0.95</time>
   <energy>
    <i name="alphaZ">     30.28014394 </i>
    <i name="ewald">  14984.29168251 </i>
    <i name="hartreedc"> -16938.86341411 </i>
    <i name="XCdc">     40.54559483 </i>
    <i name="pawpsdc">   1677.12035881 </i>
    <i name="pawaedc">  -1579.18296132 </i>
    <i name="eentropy">     -0.00064449 </i>
    <i name="bandstr">     14.30194840 </i>
    <i name="atom">   2112.48864025 </i>
    <i name="e_fr_energy">    340.98134881 </i>
    <i name="e_wo_entrp">    340.98199331 </i>
    <i name="e_0_energy">    340.98167106 </i>
   </energy>
  </scstep>
  <scstep>
   <time name="dav">    1.08    1.08</time>
   <time name="total">    1.08    1.08</time>
   <energy>
    <i name="e_fr_energy">    -26.29144729 </i>
    <i name="e_wo_entrp">    -26.29089103 </i>
    <i name="e_0_energy">    -26.29116916 </i>
   </energy>
  </scstep>
  <scstep>
   <time name="dav">    0.94    0.95</time>
   <time name="total">    0.95    0.95</time>
   <energy>
    <i name="e_fr_energy">    -62.89055431 </i>
    <i name="e_wo_entrp">    -62.89055431 </i>
    <i name="e_0_energy">    -62.89055431 </i>
   </energy>
  </scstep>
  <scstep>
   <time name="dav">    1.14    1.15</time>
   <time name="total">    1.14    1.15</time>
   <energy>
    <i name="e_fr_energy">    -64.23368150 </i>
    <i name="e_wo_entrp">    -64.23368150 </i>
    <i name="e_0_energy">    -64.23368150 </i>
   </energy>
  </scstep>
  <scstep>
   <time name="dav">    1.11    1.11</time>
   <time name="total">    1.15    1.15</time>
   <energy>
    <i name="e_fr_energy">    -64.26644257 </i>
    <i name="e_wo_entrp">    -64.26644257 </i>
    <i name="e_0_energy">    -64.26644257 </i>
   </energy>
  </scstep>
  <scstep>
   <time name="dav">    1.00    1.00</time>
   <time name="total">    1.12    1.12</time>
   <energy>
    <i name="e_fr_energy">    -63.92811652 </i>
    <i name="e_wo_entrp">    -63.92811652 </i>
    <i name="e_0_energy">    -63.92811652 </i>
   </energy>
  </scstep>
  <scstep>
   <time name="dav">    0.97    0.97</time>
   <time name="total">    1.09    1.09</time>
   <energy>
    <i name="e_fr_energy">    -63.77801410 </i>
    <i name="e_wo_entrp">    -63.77801410 </i>
    <i name="e_0_energy">    -63.77801410 </i>
   </energy>
  </scstep>
  <scstep>
   <time name="dav">    1.01    1.01</time>
   <time name="total">    1.12    1.13</time>
   <energy>
    <i name="e_fr_energy">    -63.77913201 </i>
    <i name="e_wo_entrp">    -63.77913201 </i>
    <i name="e_0_energy">    -63.77913201 </i>
   </energy>
  </scstep>
  <scstep>
   <time name="dav">    1.13    1.13</time>
   <time name="total">    1.25    1.25</time>
   <energy>
    <i name="e_fr_energy">    -63.77907841 </i>
    <i name="e_wo_entrp">    -63.77907841 </i>
    <i name="e_0_energy">    -63.77907841 </i>
   </energy>
  </scstep>
  <scstep>
   <time name="dav">    0.96    0.96</time>
   <time name="total">    1.08    1.08</time>
   <energy>
    <i name="e_fr_energy">    -63.77890686 </i>
    <i name="e_wo_entrp">    -63.77890686 </i>
    <i name="e_0_energy">    -63.77890686 </i>
   </energy>
  </scstep>
  <scstep>
   <time name="dav">    1.03    1.03</time>
   <time name="total">    1.14    1.15</time>
   <energy>
    <i name="e_fr_energy">    -63.77880032 </i>
    <i name="e_wo_entrp">    -63.77880032 </i>
    <i name="e_0_energy">    -63.77880032 </i>
   </energy>
  </scstep>
  <scstep>
   <time name="dav">    0.95    0.95</time>
   <time name="total">    1.07    1.07</time>
   <energy>
    <i name="e_fr_energy">    -63.77884917 </i>
    <i name="e_wo_entrp">    -63.77884917 </i>
    <i name="e_0_energy">    -63.77884917 </i>
   </energy>
  </scstep>
  <scstep>
   <time name="dav">    0.94    0.94</time>
   <time name="total">    1.06    1.06</time>
   <energy>
    <i name="e_fr_energy">    -63.77901889 </i>
    <i name="e_wo_entrp">    -63.77901889 </i>
    <i name="e_0_energy">    -63.77901889 </i>
   </energy>
  </scstep>
  <scstep>
   <time name="dav">    0.85    0.86</time>
   <time name="total">    0.97    0.98</time>
   <energy>
    <i name="e_fr_energy">    -63.77915770 </i>
    <i name="e_wo_entrp">    -63.77915770 </i>
    <i name="e_0_energy">    -63.77915770 </i>
   </energy>
  </scstep>
  <scstep>
   <time name="dav">    0.79    0.79</time>
   <time name="total">    0.91    0.91</time>
   <energy>
    <i name="e_fr_energy">    -63.77934285 </i>
    <i name="e_wo_entrp">    -63.77934285 </i>
    <i name="e_0_energy">    -63.77934285 </i>
   </energy>
  </scstep>
  <scstep>
   <time name="dav">    0.80    0.80</time>
   <time name="total">    0.92    0.92</time>
   <energy>
    <i name="e_fr_energy">    -63.77947633 </i>
    <i name="e_wo_entrp">    -63.77947633 </i>
    <i name="e_0_energy">    -63.77947633 </i>
   </energy>
  </scstep>
  <scstep>
   <time name="dav">    0.75    0.75</time>
   <time name="total">    0.87    0.87</time>
   <energy>
    <i name="e_fr_energy">    -63.77951546 </i>
    <i name="e_wo_entrp">    -63.77951546 </i>
    <i name="e_0_energy">    -63.77951546 </i>
   </energy>
  </scstep>
  <scstep>
   <time name="dav">    0.74    0.74</time>
   <time name="total">    0.86    0.86</time>
   <energy>
    <i name="e_fr_energy">    -63.77955551 </i>
    <i name="e_wo_entrp">    -63.77955551 </i>
    <i name="e_0_energy">    -63.77955551 </i>
   </energy>
  </scstep>
  <scstep>
   <time name="dav">    0.71    0.71</time>
   <time name="total">    0.83    0.83</time>
   <energy>
    <i name="e_fr_energy">    -63.77956597 </i>
    <i name="e_wo_entrp">    -63.77956597 </i>
    <i name="e_0_energy">    -63.77956597 </i>
   </energy>
  </scstep>
  <scstep>
   <time name="dav">    0.71    0.71</time>
   <time name="total">    0.83    0.83</time>
   <energy>
    <i name="e_fr_energy">    -63.77957608 </i>
    <i name="e_wo_entrp">    -63.77957608 </i>
    <i name="e_0_energy">    -63.77957608 </i>
   </energy>
  </scstep>
  <scstep>
   <time name="dav">    0.69    0.69</time>
   <time name="total">    0.85    0.86</time>
   <energy>
    <i name="alphaZ">     30.28014394 </i>
    <i name="ewald">  14984.29168251 </i>
    <i name="hartreedc"> -16975.89823461 </i>
    <i name="XCdc">     43.39204954 </i>
    <i name="pawpsdc">   6375.91145332 </i>
    <i name="pawaedc">  -6278.89978565 </i>
    <i name="eentropy">     -0.00000000 </i>
    <i name="bandstr">   -355.34552669 </i>
    <i name="atom">   2112.48864025 </i>
    <i name="e_fr_energy">    -63.77957738 </i>
    <i name="e_wo_entrp">    -63.77957738 </i>
    <i name="e_0_energy">    -63.77957738 </i>
   </energy>
  </scstep>
  <structure>
   <crystal>
    <varray name="basis" >
     <v>       3.34288600       0.00000000       0.00000000 </v>
     <v>       0.00000000      32.60240900       0.00000000 </v>
     <v>       0.00000000       0.00000000       4.37483100 </v>
    </varray>
    <i name="volume">    476.79592902 </i>
    <varray name="rec_basis" >
     <v>       0.29914272       0.00000000       0.00000000 </v>
     <v>       0.00000000       0.03067258       0.00000000 </v>
     <v>       0.00000000       0.00000000       0.22858026 </v>
    </varray>
   </crystal>
   <varray name="positions" >
    <v>       0.00000000       0.30672600       0.91892400 </v>
    <v>       0.50000000       0.30672600       0.58107600 </v>
    <v>       0.00000000       0.37246700       0.08107600 </v>
    <v>       0.50000000       0.37246700       0.41892400 </v>
    <v>       0.50000000       0.46712900       0.41892400 </v>
    <v>       0.00000000       0.46712900       0.08107600 </v>
    <v>       0.50000000       0.53287100       0.58107600 </v>
    <v>       0.00000000       0.53287100       0.91892400 </v>
    <v>       0.00000000       0.62753300       0.91892400 </v>
    <v>       0.50000000       0.62753300       0.58107600 </v>
    <v>       0.00000000       0.69327400       0.08107600 </v>
    <v>       0.50000000       0.69327400       0.41892400 </v>
   </varray>
  </structure>
  <varray name="forces" >
   <v>       0.00000000      -0.08541521      -0.09468736 </v>
   <v>       0.00000000      -0.08541521       0.09468736 </v>
   <v>       0.00000000      -0.31305271      -0.06960566 </v>
   <v>       0.00000000      -0.31305271       0.06960566 </v>
   <v>       0.00000000       0.21548120       0.06965762 </v>
   <v>       0.00000000       0.21548120      -0.06965762 </v>
   <v>       0.00000000      -0.21548120      -0.06965762 </v>
   <v>       0.00000000      -0.21548120       0.06965762 </v>
   <v>      -0.00000000       0.31305271       0.06960566 </v>
   <v>       0.00000000       0.31305271      -0.06960566 </v>
   <v>       0.00000000       0.08541521       0.09468736 </v>
   <v>      -0.00000000       0.08541521      -0.09468736 </v>
  </varray>
  <varray name="stress" >
   <v>      -5.44436285       0.00000000       0.00000000 </v>
   <v>       0.00000000      21.61202986       0.00000000 </v>
   <v>       0.00000000       0.00000000       2.69999115 </v>
  </varray>
  <energy>
   <i name="e_fr_energy">    -65.86522393 </i>
   <i name="e_wo_entrp">    -65.86522393 </i>
   <i name="e_0_energy">     -0.00000000 </i>
  </energy>
  <time name="totalsc">   23.09   23.23</time>
  <eigenvalues>
   <array>
    <dimension dim="1">band</dimension>
    <dimension dim="2">kpoint</dimension>
    <dimension dim="3">spin</dimension>
    <field>eigene</field>
    <field>occ</field>
    <set>
     <set comment="spin 1">
      <set comment="kpoint 1">
       <r>  -14.9542    1.0000 </r>
       <r>  -14.7779    1.0000 </r>
       <r>  -14.6818    1.0000 </r>
       <r>  -12.5624    1.0000 </r>
       <r>  -12.1857    1.0000 </r>
       <r>  -11.9319    1.0000 </r>
       <r>   -8.6831    1.0000 </r>
       <r>   -8.5518    1.0000 </r>
       <r>   -8.4960    1.0000 </r>
       <r>   -6.3000    1.0000 </r>
       <r>   -5.6064    1.0000 </r>
       <r>   -4.8704    1.0000 </r>
       <r>   -4.7829    1.0000 </r>
       <r>   -4.5988    1.0000 </r>
       <r>   -4.2758    1.0000 </r>
       <r>   -4.2128    1.0000 </r>
       <r>   -3.9856    1.0000 </r>
       <r>   -3.8192    1.0000 </r>
       <r>   -3.4880    1.0000 </r>
       <r>   -3.3357    1.0000 </r>
       <r>   -3.2641    1.0000 </r>
       <r>   -2.0676    1.0000 </r>
       <r>   -1.8619    1.0000 </r>
       <r>   -1.6309    1.0000 </r>
       <r>   -1.5234    1.0000 </r>
       <r>   -1.5164    1.0000 </r>
       <r>   -0.8966    1.0000 </r>
       <r>   -0.5884    1.0000 </r>
       <r>    0.1383    1.0000 </r>
       <r>    0.3222    1.0000 </r>
       <r>    1.0459    0.0000 </r>
       <r>    1.3367    0.0000 </r>
       <r>    1.3448    0.0000 </r>
       <r>    1.5973    0.0000 </r>
       <r>    2.0091    0.0000 </r>
       <r>    2.5511    0.0000 </r>
       <r>    2.5978    0.0000 </r>
       <r>    2.8833    0.0000 </r>
       <r>    3.0368    0.0000 </r>
       <r>    3.6344    0.0000 </r>
      </set>
      <set comment="kpoint 2">
       <r>  -14.7720    1.0000 </r>
       <r>  -14.5962    1.0000 </r>
       <r>  -14.5007    1.0000 </r>
       <r>  -12.3737    1.0000 </r>
       <r>  -11.9971    1.0000 </r>
       <r>  -11.7432    1.0000 </r>
       <r>   -8.8481    1.0000 </r>
       <r>   -8.7148    1.0000 </r>
       <r>   -8.6577    1.0000 </r>
       <r>   -6.1447    1.0000 </r>
       <r>   -5.4567    1.0000 </r>
       <r>   -5.0862    1.0000 </r>
       <r>   -4.7359    1.0000 </r>
       <r>   -4.6072    1.0000 </r>
       <r>   -4.4422    1.0000 </r>
       <r>   -4.2473    1.0000 </r>
       <r>   -4.1885    1.0000 </r>
       <r>   -4.0870    1.0000 </r>
       <r>   -4.0621    1.0000 </r>
       <r>   -4.0082    1.0000 </r>
       <r>   -3.8289    1.0000 </r>
       <r>   -2.5839    1.0000 </r>
       <r>   -2.3208    1.0000 </r>
       <r>   -2.1490    1.0000 </r>
       <r>   -1.9826    1.0000 </r>
       <r>   -1.4402    1.0000 </r>
       <r>   -0.8131    1.0000 </r>
       <r>   -0.7083    1.0000 </r>
       <r>    0.2275    1.0000 </r>
       <r>    0.3115    1.0000 </r>
       <r>    1.0960    0.0000 </r>
       <r>    1.4990    0.0000 </r>
       <r>    2.6969    0.0000 </r>
       <r>    2.7029    0.0000 </r>
       <r>    2.7309    0.0000 </r>
       <r>    2.9422    0.0000 </r>
       <r>    2.9463    0.0000 </r>
       <r>    2.9749    0.0000 </r>
       <r>    3.2041    0.0000 </r>
       <r>    3.7422    0.0000 </r>
      </set>
      <set comment="kpoint 3">
       <r>  -14.2306    1.0000 </r>
       <r>  -14.0564    1.0000 </r>
       <r>  -13.9626    1.0000 </r>
       <r>  -11.8106    1.0000 </r>
       <r>  -11.4341    1.0000 </r>
       <r>  -11.1799    1.0000 </r>
       <r>   -9.5511    1.0000 </r>
       <r>   -9.4076    1.0000 </r>
       <r>   -9.3428    1.0000 </r>
       <r>   -6.3517    1.0000 </r>
       <r>   -5.9416    1.0000 </r>
       <r>   -5.6995    1.0000 </r>
       <r>   -5.6274    1.0000 </r>
       <r>   -5.0357    1.0000 </r>
       <r>   -5.0117    1.0000 </r>
       <r>   -4.8454    1.0000 </r>
       <r>   -4.7675    1.0000 </r>
       <r>   -4.3786    1.0000 </r>
       <r>   -3.9977    1.0000 </r>
       <r>   -3.6381    1.0000 </r>
       <r>   -3.3818    1.0000 </r>
       <r>   -2.9521    1.0000 </r>
       <r>   -2.6320    1.0000 </r>
       <r>   -2.3299    1.0000 </r>
       <r>   -1.8805    1.0000 </r>
       <r>   -1.3486    1.0000 </r>
       <r>   -1.1585    1.0000 </r>
       <r>   -0.7344    1.0000 </r>
       <r>   -0.2335    1.0000 </r>
       <r>    0.6505    1.0000 </r>
       <r>    0.8203    0.0000 </r>
       <r>    1.3681    0.0000 </r>
       <r>    1.6391    0.0000 </r>
       <r>    1.8134    0.0000 </r>
       <r>    2.0282    0.0000 </r>
       <r>    3.1853    0.0000 </r>
       <r>    3.2216    0.0000 </r>
       <r>    3.4937    0.0000 </r>
       <r>    3.5591    0.0000 </r>
       <r>    3.7442    0.0000 </r>
      </set>
      <set comment="kpoint 4">
       <r>  -13.3487    1.0000 </r>
       <r>  -13.1775    1.0000 </r>
       <r>  -13.0868    1.0000 </r>
       <r>  -10.8827    1.0000 </r>
       <r>  -10.8085    1.0000 </r>
       <r>  -10.6514    1.0000 </r>
       <r>  -10.5747    1.0000 </r>
       <r>  -10.5061    1.0000 </r>
       <r>  -10.2507    1.0000 </r>
       <r>   -8.0489    1.0000 </r>
       <r>   -7.6636    1.0000 </r>
       <r>   -7.3921    1.0000 </r>
       <r>   -5.0655    1.0000 </r>
       <r>   -4.9527    1.0000 </r>
       <r>   -4.7724    1.0000 </r>
       <r>   -4.6877    1.0000 </r>
       <r>   -4.4916    1.0000 </r>
       <r>   -4.0301    1.0000 </r>
       <r>   -3.3864    1.0000 </r>
       <r>   -3.0845    1.0000 </r>
       <r>   -2.7696    1.0000 </r>
       <r>   -2.7489    1.0000 </r>
       <r>   -2.5484    1.0000 </r>
       <r>   -2.1710    1.0000 </r>
       <r>   -2.0940    1.0000 </r>
       <r>   -1.8203    1.0000 </r>
       <r>   -1.6180    1.0000 </r>
       <r>   -1.0146    1.0000 </r>
       <r>   -0.9993    1.0000 </r>
       <r>   -0.1697    1.0000 </r>
       <r>    1.0843    0.0000 </r>
       <r>    1.4085    0.0000 </r>
       <r>    1.5663    0.0000 </r>
       <r>    1.7014    0.0000 </r>
       <r>    1.7110    0.0000 </r>
       <r>    2.0813    0.0000 </r>
       <r>    2.2148    0.0000 </r>
       <r>    2.3652    0.0000 </r>
       <r>    2.3955    0.0000 </r>
       <r>    2.7369    0.0000 </r>
      </set>
      <set comment="kpoint 5">
       <r>  -12.1708    1.0000 </r>
       <r>  -12.1708    1.0000 </r>
       <r>  -12.0048    1.0000 </r>
       <r>  -12.0048    1.0000 </r>
       <r>  -11.9195    1.0000 </r>
       <r>  -11.9195    1.0000 </r>
       <r>   -9.6118    1.0000 </r>
       <r>   -9.6118    1.0000 </r>
       <r>   -9.2335    1.0000 </r>
       <r>   -9.2335    1.0000 </r>
       <r>   -8.9742    1.0000 </r>
       <r>   -8.9742    1.0000 </r>
       <r>   -4.6713    1.0000 </r>
       <r>   -4.6713    1.0000 </r>
       <r>   -4.3609    1.0000 </r>
       <r>   -4.3609    1.0000 </r>
       <r>   -4.1962    1.0000 </r>
       <r>   -4.1962    1.0000 </r>
       <r>   -2.8922    1.0000 </r>
       <r>   -2.8922    1.0000 </r>
       <r>   -2.8694    1.0000 </r>
       <r>   -2.8694    1.0000 </r>
       <r>   -2.2100    1.0000 </r>
       <r>   -2.2100    1.0000 </r>
       <r>   -2.1692    1.0000 </r>
       <r>   -2.1692    1.0000 </r>
       <r>   -1.5904    1.0000 </r>
       <r>   -1.5904    1.0000 </r>
       <r>   -0.9111    1.0000 </r>
       <r>   -0.9111    1.0000 </r>
       <r>    1.2283    0.0000 </r>
       <r>    1.2283    0.0000 </r>
       <r>    1.6124    0.0000 </r>
       <r>    1.6124    0.0000 </r>
       <r>    1.9281    0.0000 </r>
       <r>    1.9281    0.0000 </r>
       <r>    1.9794    0.0000 </r>
       <r>    1.9794    0.0000 </r>
       <r>    2.2775    0.0000 </r>
       <r>    2.2775    0.0000 </r>
      </set>
      <set comment="kpoint 6">
       <r>  -14.8036    1.0000 </r>
       <r>  -14.6255    1.0000 </r>
       <r>  -14.5264    1.0000 </r>
       <r>  -12.6612    1.0000 </r>
       <r>  -12.3191    1.0000 </r>
       <r>  -12.1035    1.0000 </r>
       <r>   -8.9736    1.0000 </r>
       <r>   -8.7787    1.0000 </r>
       <r>   -8.6494    1.0000 </r>
       <r>   -6.7144    1.0000 </r>
       <r>   -6.1534    1.0000 </r>
       <r>   -5.6785    1.0000 </r>
       <r>   -4.9471    1.0000 </r>
       <r>   -4.3462    1.0000 </r>
       <r>   -3.7950    1.0000 </r>
       <r>   -3.7047    1.0000 </r>
       <r>   -3.3692    1.0000 </r>
       <r>   -3.3022    1.0000 </r>
       <r>   -3.2205    1.0000 </r>
       <r>   -3.2160    1.0000 </r>
       <r>   -3.1418    1.0000 </r>
       <r>   -1.9213    1.0000 </r>
       <r>   -1.7012    1.0000 </r>
       <r>   -1.5971    1.0000 </r>
       <r>   -1.5947    1.0000 </r>
       <r>   -1.3226    1.0000 </r>
       <r>   -0.7230    1.0000 </r>
       <r>   -0.6192    1.0000 </r>
       <r>   -0.0828    1.0000 </r>
       <r>    0.4477    1.0000 </r>
       <r>    0.8663    0.0000 </r>
       <r>    1.5784    0.0000 </r>
       <r>    1.6950    0.0000 </r>
       <r>    2.0257    0.0000 </r>
       <r>    2.0437    0.0000 </r>
       <r>    2.3499    0.0000 </r>
       <r>    2.5489    0.0000 </r>
       <r>    2.7457    0.0000 </r>
       <r>    3.3639    0.0000 </r>
       <r>    3.3991    0.0000 </r>
      </set>
      <set comment="kpoint 7">
       <r>  -14.6225    1.0000 </r>
       <r>  -14.4449    1.0000 </r>
       <r>  -14.3464    1.0000 </r>
       <r>  -12.4775    1.0000 </r>
       <r>  -12.1370    1.0000 </r>
       <r>  -11.9229    1.0000 </r>
       <r>   -9.0407    1.0000 </r>
       <r>   -8.8492    1.0000 </r>
       <r>   -8.7255    1.0000 </r>
       <r>   -6.6294    1.0000 </r>
       <r>   -6.0917    1.0000 </r>
       <r>   -5.6390    1.0000 </r>
       <r>   -5.0146    1.0000 </r>
       <r>   -4.7115    1.0000 </r>
       <r>   -4.4328    1.0000 </r>
       <r>   -4.3542    1.0000 </r>
       <r>   -4.2054    1.0000 </r>
       <r>   -3.5817    1.0000 </r>
       <r>   -3.2848    1.0000 </r>
       <r>   -2.9965    1.0000 </r>
       <r>   -2.9001    1.0000 </r>
       <r>   -2.8425    1.0000 </r>
       <r>   -2.5996    1.0000 </r>
       <r>   -2.3862    1.0000 </r>
       <r>   -1.5819    1.0000 </r>
       <r>   -1.3325    1.0000 </r>
       <r>   -0.7597    1.0000 </r>
       <r>   -0.6192    1.0000 </r>
       <r>   -0.1366    1.0000 </r>
       <r>    0.4729    1.0000 </r>
       <r>    0.9751    0.0000 </r>
       <r>    2.0893    0.0000 </r>
       <r>    2.5105    0.0000 </r>
       <r>    2.7105    0.0000 </r>
       <r>    2.8672    0.0000 </r>
       <r>    2.8766    0.0000 </r>
       <r>    3.0652    0.0000 </r>
       <r>    3.2773    0.0000 </r>
       <r>    3.3803    0.0000 </r>
       <r>    3.7044    0.0000 </r>
      </set>
      <set comment="kpoint 8">
       <r>  -14.0851    1.0000 </r>
       <r>  -13.9093    1.0000 </r>
       <r>  -13.8127    1.0000 </r>
       <r>  -11.9385    1.0000 </r>
       <r>  -11.6062    1.0000 </r>
       <r>  -11.4004    1.0000 </r>
       <r>   -9.4963    1.0000 </r>
       <r>   -9.3064    1.0000 </r>
       <r>   -9.1898    1.0000 </r>
       <r>   -6.8119    1.0000 </r>
       <r>   -6.3910    1.0000 </r>
       <r>   -6.0595    1.0000 </r>
       <r>   -5.5753    1.0000 </r>
       <r>   -5.4505    1.0000 </r>
       <r>   -5.3029    1.0000 </r>
       <r>   -5.2126    1.0000 </r>
       <r>   -4.7688    1.0000 </r>
       <r>   -4.2713    1.0000 </r>
       <r>   -3.4968    1.0000 </r>
       <r>   -3.1908    1.0000 </r>
       <r>   -2.9307    1.0000 </r>
       <r>   -2.8127    1.0000 </r>
       <r>   -2.5444    1.0000 </r>
       <r>   -2.5015    1.0000 </r>
       <r>   -1.7910    1.0000 </r>
       <r>   -1.7053    1.0000 </r>
       <r>   -1.1770    1.0000 </r>
       <r>   -0.8734    1.0000 </r>
       <r>   -0.4551    1.0000 </r>
       <r>    0.3281    1.0000 </r>
       <r>    1.1953    0.0000 </r>
       <r>    1.8659    0.0000 </r>
       <r>    2.1632    0.0000 </r>
       <r>    2.2754    0.0000 </r>
       <r>    2.4426    0.0000 </r>
       <r>    2.6095    0.0000 </r>
       <r>    2.9596    0.0000 </r>
       <r>    3.2213    0.0000 </r>
       <r>    3.5037    0.0000 </r>
       <r>    4.0336    0.0000 </r>
      </set>
      <set comment="kpoint 9">
       <r>  -13.2145    1.0000 </r>
       <r>  -13.0421    1.0000 </r>
       <r>  -12.9492    1.0000 </r>
       <r>  -11.2307    1.0000 </r>
       <r>  -10.9903    1.0000 </r>
       <r>  -10.8692    1.0000 </r>
       <r>  -10.4072    1.0000 </r>
       <r>  -10.1268    1.0000 </r>
       <r>   -9.9297    1.0000 </r>
       <r>   -8.1594    1.0000 </r>
       <r>   -7.7907    1.0000 </r>
       <r>   -7.5368    1.0000 </r>
       <r>   -5.5253    1.0000 </r>
       <r>   -5.3229    1.0000 </r>
       <r>   -5.1428    1.0000 </r>
       <r>   -5.0478    1.0000 </r>
       <r>   -4.5230    1.0000 </r>
       <r>   -4.1272    1.0000 </r>
       <r>   -3.4309    1.0000 </r>
       <r>   -3.2096    1.0000 </r>
       <r>   -3.0212    1.0000 </r>
       <r>   -2.8407    1.0000 </r>
       <r>   -2.7816    1.0000 </r>
       <r>   -2.4014    1.0000 </r>
       <r>   -2.2862    1.0000 </r>
       <r>   -1.8433    1.0000 </r>
       <r>   -1.5549    1.0000 </r>
       <r>   -1.0369    1.0000 </r>
       <r>   -0.8003    1.0000 </r>
       <r>   -0.0555    1.0000 </r>
       <r>    1.3352    0.0000 </r>
       <r>    1.7782    0.0000 </r>
       <r>    1.7928    0.0000 </r>
       <r>    2.0906    0.0000 </r>
       <r>    2.1475    0.0000 </r>
       <r>    2.4205    0.0000 </r>
       <r>    2.4630    0.0000 </r>
       <r>    2.6242    0.0000 </r>
       <r>    2.8018    0.0000 </r>
       <r>    2.9108    0.0000 </r>
      </set>
      <set comment="kpoint 10">
       <r>  -12.0774    1.0000 </r>
       <r>  -12.0774    1.0000 </r>
       <r>  -11.9110    1.0000 </r>
       <r>  -11.9110    1.0000 </r>
       <r>  -11.8249    1.0000 </r>
       <r>  -11.8249    1.0000 </r>
       <r>   -9.6358    1.0000 </r>
       <r>   -9.6358    1.0000 </r>
       <r>   -9.2733    1.0000 </r>
       <r>   -9.2733    1.0000 </r>
       <r>   -9.0319    1.0000 </r>
       <r>   -9.0319    1.0000 </r>
       <r>   -4.9312    1.0000 </r>
       <r>   -4.9312    1.0000 </r>
       <r>   -4.6497    1.0000 </r>
       <r>   -4.6497    1.0000 </r>
       <r>   -4.4664    1.0000 </r>
       <r>   -4.4664    1.0000 </r>
       <r>   -3.6256    1.0000 </r>
       <r>   -3.6256    1.0000 </r>
       <r>   -3.1776    1.0000 </r>
       <r>   -3.1776    1.0000 </r>
       <r>   -2.7262    1.0000 </r>
       <r>   -2.7262    1.0000 </r>
       <r>   -1.9821    1.0000 </r>
       <r>   -1.9821    1.0000 </r>
       <r>   -1.2531    1.0000 </r>
       <r>   -1.2531    1.0000 </r>
       <r>   -0.4816    1.0000 </r>
       <r>   -0.4816    1.0000 </r>
       <r>    1.2649    0.0000 </r>
       <r>    1.2649    0.0000 </r>
       <r>    1.6689    0.0000 </r>
       <r>    1.6689    0.0000 </r>
       <r>    1.9726    0.0000 </r>
       <r>    1.9726    0.0000 </r>
       <r>    2.6204    0.0000 </r>
       <r>    2.6204    0.0000 </r>
       <r>    3.3290    0.0000 </r>
       <r>    3.3490    0.0000 </r>
      </set>
      <set comment="kpoint 11">
       <r>  -14.3748    1.0000 </r>
       <r>  -14.1918    1.0000 </r>
       <r>  -14.0775    1.0000 </r>
       <r>  -13.0475    1.0000 </r>
       <r>  -12.7858    1.0000 </r>
       <r>  -12.6479    1.0000 </r>
       <r>   -9.1477    1.0000 </r>
       <r>   -8.8396    1.0000 </r>
       <r>   -8.5932    1.0000 </r>
       <r>   -7.7552    1.0000 </r>
       <r>   -7.3098    1.0000 </r>
       <r>   -6.9416    1.0000 </r>
       <r>   -4.5982    1.0000 </r>
       <r>   -3.7421    1.0000 </r>
       <r>   -3.0421    1.0000 </r>
       <r>   -2.8880    1.0000 </r>
       <r>   -2.8082    1.0000 </r>
       <r>   -2.8002    1.0000 </r>
       <r>   -2.7697    1.0000 </r>
       <r>   -2.4103    1.0000 </r>
       <r>   -2.1406    1.0000 </r>
       <r>   -2.0955    1.0000 </r>
       <r>   -1.9823    1.0000 </r>
       <r>   -1.9499    1.0000 </r>
       <r>   -1.8728    1.0000 </r>
       <r>   -1.7941    1.0000 </r>
       <r>   -0.7479    1.0000 </r>
       <r>   -0.1610    1.0000 </r>
       <r>    0.3176    1.0000 </r>
       <r>    0.5882    1.0000 </r>
       <r>    1.3885    0.0000 </r>
       <r>    1.5220    0.0000 </r>
       <r>    2.0428    0.0000 </r>
       <r>    2.1805    0.0000 </r>
       <r>    2.3085    0.0000 </r>
       <r>    2.4178    0.0000 </r>
       <r>    2.5186    0.0000 </r>
       <r>    3.0818    0.0000 </r>
       <r>    3.1935    0.0000 </r>
       <r>    3.2840    0.0000 </r>
      </set>
      <set comment="kpoint 12">
       <r>  -14.1967    1.0000 </r>
       <r>  -14.0144    1.0000 </r>
       <r>  -13.9009    1.0000 </r>
       <r>  -12.8729    1.0000 </r>
       <r>  -12.6134    1.0000 </r>
       <r>  -12.4773    1.0000 </r>
       <r>   -9.1073    1.0000 </r>
       <r>   -8.8037    1.0000 </r>
       <r>   -8.5654    1.0000 </r>
       <r>   -7.6748    1.0000 </r>
       <r>   -7.2361    1.0000 </r>
       <r>   -6.8761    1.0000 </r>
       <r>   -4.5559    1.0000 </r>
       <r>   -4.4291    1.0000 </r>
       <r>   -4.2002    1.0000 </r>
       <r>   -4.0982    1.0000 </r>
       <r>   -3.6804    1.0000 </r>
       <r>   -3.2961    1.0000 </r>
       <r>   -3.0968    1.0000 </r>
       <r>   -3.0400    1.0000 </r>
       <r>   -2.6822    1.0000 </r>
       <r>   -2.6182    1.0000 </r>
       <r>   -1.9055    1.0000 </r>
       <r>   -1.8460    1.0000 </r>
       <r>   -1.5324    1.0000 </r>
       <r>   -1.5171    1.0000 </r>
       <r>   -0.7048    1.0000 </r>
       <r>   -0.5991    1.0000 </r>
       <r>   -0.0451    1.0000 </r>
       <r>    0.1694    1.0000 </r>
       <r>    1.8675    0.0000 </r>
       <r>    2.6692    0.0000 </r>
       <r>    2.8084    0.0000 </r>
       <r>    3.0242    0.0000 </r>
       <r>    3.2080    0.0000 </r>
       <r>    3.2110    0.0000 </r>
       <r>    3.2871    0.0000 </r>
       <r>    3.2944    0.0000 </r>
       <r>    3.4293    0.0000 </r>
       <r>    3.4943    0.0000 </r>
      </set>
      <set comment="kpoint 13">
       <r>  -13.6712    1.0000 </r>
       <r>  -13.4912    1.0000 </r>
       <r>  -13.3808    1.0000 </r>
       <r>  -12.3690    1.0000 </r>
       <r>  -12.1193    1.0000 </r>
       <r>  -11.9906    1.0000 </r>
       <r>   -9.2060    1.0000 </r>
       <r>   -8.9218    1.0000 </r>
       <r>   -8.7153    1.0000 </r>
       <r>   -7.6796    1.0000 </r>
       <r>   -7.2844    1.0000 </r>
       <r>   -6.9795    1.0000 </r>
       <r>   -5.7914    1.0000 </r>
       <r>   -5.5580    1.0000 </r>
       <r>   -5.3850    1.0000 </r>
       <r>   -5.1549    1.0000 </r>
       <r>   -4.7576    1.0000 </r>
       <r>   -4.5056    1.0000 </r>
       <r>   -3.9079    1.0000 </r>
       <r>   -3.2907    1.0000 </r>
       <r>   -2.6517    1.0000 </r>
       <r>   -2.6089    1.0000 </r>
       <r>   -2.0057    1.0000 </r>
       <r>   -1.9837    1.0000 </r>
       <r>   -1.9821    1.0000 </r>
       <r>   -1.6890    1.0000 </r>
       <r>   -1.2474    1.0000 </r>
       <r>   -1.1667    1.0000 </r>
       <r>   -0.5644    1.0000 </r>
       <r>   -0.1158    1.0000 </r>
       <r>    1.9612    0.0000 </r>
       <r>    2.1769    0.0000 </r>
       <r>    2.4338    0.0000 </r>
       <r>    2.6962    0.0000 </r>
       <r>    3.0263    0.0000 </r>
       <r>    3.2959    0.0000 </r>
       <r>    3.5996    0.0000 </r>
       <r>    3.8037    0.0000 </r>
       <r>    3.8478    0.0000 </r>
       <r>    4.2167    0.0000 </r>
      </set>
      <set comment="kpoint 14">
       <r>  -12.8371    1.0000 </r>
       <r>  -12.6622    1.0000 </r>
       <r>  -12.5584    1.0000 </r>
       <r>  -11.6889    1.0000 </r>
       <r>  -11.4777    1.0000 </r>
       <r>  -11.3749    1.0000 </r>
       <r>   -9.8446    1.0000 </r>
       <r>   -9.5595    1.0000 </r>
       <r>   -9.3679    1.0000 </r>
       <r>   -8.5420    1.0000 </r>
       <r>   -8.2123    1.0000 </r>
       <r>   -7.9970    1.0000 </r>
       <r>   -5.9903    1.0000 </r>
       <r>   -5.7141    1.0000 </r>
       <r>   -5.4911    1.0000 </r>
       <r>   -5.3017    1.0000 </r>
       <r>   -4.8763    1.0000 </r>
       <r>   -4.5557    1.0000 </r>
       <r>   -4.1378    1.0000 </r>
       <r>   -3.8148    1.0000 </r>
       <r>   -3.4636    1.0000 </r>
       <r>   -3.3221    1.0000 </r>
       <r>   -2.9452    1.0000 </r>
       <r>   -2.5728    1.0000 </r>
       <r>   -2.4620    1.0000 </r>
       <r>   -1.9138    1.0000 </r>
       <r>   -1.4655    1.0000 </r>
       <r>   -0.9892    1.0000 </r>
       <r>   -0.6280    1.0000 </r>
       <r>    0.0540    1.0000 </r>
       <r>    1.5427    0.0000 </r>
       <r>    2.2972    0.0000 </r>
       <r>    2.3789    0.0000 </r>
       <r>    2.6645    0.0000 </r>
       <r>    2.6977    0.0000 </r>
       <r>    3.0739    0.0000 </r>
       <r>    3.7429    0.0000 </r>
       <r>    3.9397    0.0000 </r>
       <r>    3.9831    0.0000 </r>
       <r>    4.1779    0.0000 </r>
      </set>
      <set comment="kpoint 15">
       <r>  -11.8602    1.0000 </r>
       <r>  -11.8602    1.0000 </r>
       <r>  -11.6929    1.0000 </r>
       <r>  -11.6929    1.0000 </r>
       <r>  -11.6043    1.0000 </r>
       <r>  -11.6043    1.0000 </r>
       <r>   -9.7338    1.0000 </r>
       <r>   -9.7338    1.0000 </r>
       <r>   -9.4087    1.0000 </r>
       <r>   -9.4087    1.0000 </r>
       <r>   -9.2075    1.0000 </r>
       <r>   -9.2075    1.0000 </r>
       <r>   -5.2505    1.0000 </r>
       <r>   -5.2505    1.0000 </r>
       <r>   -4.9460    1.0000 </r>
       <r>   -4.9460    1.0000 </r>
       <r>   -4.6998    1.0000 </r>
       <r>   -4.6998    1.0000 </r>
       <r>   -4.4046    1.0000 </r>
       <r>   -4.4046    1.0000 </r>
       <r>   -3.9872    1.0000 </r>
       <r>   -3.9872    1.0000 </r>
       <r>   -3.6249    1.0000 </r>
       <r>   -3.6249    1.0000 </r>
       <r>   -2.0066    1.0000 </r>
       <r>   -2.0066    1.0000 </r>
       <r>   -1.1459    1.0000 </r>
       <r>   -1.1459    1.0000 </r>
       <r>   -0.2541    1.0000 </r>
       <r>   -0.2541    1.0000 </r>
       <r>    1.8095    0.0000 </r>
       <r>    1.8095    0.0000 </r>
       <r>    2.6861    0.0000 </r>
       <r>    2.6861    0.0000 </r>
       <r>    3.2834    0.0000 </r>
       <r>    3.2834    0.0000 </r>
       <r>    3.3392    0.0000 </r>
       <r>    3.3392    0.0000 </r>
       <r>    3.6414    0.0000 </r>
       <r>    3.6414    0.0000 </r>
      </set>
      <set comment="kpoint 16">
       <r>  -13.8032    1.0000 </r>
       <r>  -13.8032    1.0000 </r>
       <r>  -13.4440    1.0000 </r>
       <r>  -13.4440    1.0000 </r>
       <r>  -13.3811    1.0000 </r>
       <r>  -13.3811    1.0000 </r>
       <r>   -8.6935    1.0000 </r>
       <r>   -8.6935    1.0000 </r>
       <r>   -8.3035    1.0000 </r>
       <r>   -8.3035    1.0000 </r>
       <r>   -7.9836    1.0000 </r>
       <r>   -7.9836    1.0000 </r>
       <r>   -3.8219    1.0000 </r>
       <r>   -3.8219    1.0000 </r>
       <r>   -2.9036    1.0000 </r>
       <r>   -2.9036    1.0000 </r>
       <r>   -2.6421    1.0000 </r>
       <r>   -2.6421    1.0000 </r>
       <r>   -2.3349    1.0000 </r>
       <r>   -2.3349    1.0000 </r>
       <r>   -2.3208    1.0000 </r>
       <r>   -2.3208    1.0000 </r>
       <r>   -1.9643    1.0000 </r>
       <r>   -1.9643    1.0000 </r>
       <r>   -0.9924    1.0000 </r>
       <r>   -0.9924    1.0000 </r>
       <r>   -0.5952    1.0000 </r>
       <r>   -0.5952    1.0000 </r>
       <r>   -0.1493    1.0000 </r>
       <r>   -0.1493    1.0000 </r>
       <r>    1.6390    0.0000 </r>
       <r>    1.6390    0.0000 </r>
       <r>    2.3273    0.0000 </r>
       <r>    2.3273    0.0000 </r>
       <r>    2.5964    0.0000 </r>
       <r>    2.5964    0.0000 </r>
       <r>    3.3131    0.0000 </r>
       <r>    3.3133    0.0000 </r>
       <r>    3.3233    0.0000 </r>
       <r>    3.3233    0.0000 </r>
      </set>
      <set comment="kpoint 17">
       <r>  -13.6280    1.0000 </r>
       <r>  -13.6280    1.0000 </r>
       <r>  -13.2718    1.0000 </r>
       <r>  -13.2718    1.0000 </r>
       <r>  -13.2098    1.0000 </r>
       <r>  -13.2098    1.0000 </r>
       <r>   -8.6118    1.0000 </r>
       <r>   -8.6118    1.0000 </r>
       <r>   -8.2275    1.0000 </r>
       <r>   -8.2275    1.0000 </r>
       <r>   -7.9152    1.0000 </r>
       <r>   -7.9152    1.0000 </r>
       <r>   -3.9681    1.0000 </r>
       <r>   -3.9681    1.0000 </r>
       <r>   -3.7825    1.0000 </r>
       <r>   -3.7825    1.0000 </r>
       <r>   -3.5794    1.0000 </r>
       <r>   -3.5794    1.0000 </r>
       <r>   -3.5433    1.0000 </r>
       <r>   -3.5433    1.0000 </r>
       <r>   -2.7942    1.0000 </r>
       <r>   -2.7942    1.0000 </r>
       <r>   -1.8930    1.0000 </r>
       <r>   -1.8930    1.0000 </r>
       <r>   -0.9561    1.0000 </r>
       <r>   -0.9561    1.0000 </r>
       <r>   -0.4787    1.0000 </r>
       <r>   -0.4787    1.0000 </r>
       <r>    0.0562    1.0000 </r>
       <r>    0.0562    1.0000 </r>
       <r>    2.4679    0.0000 </r>
       <r>    2.4679    0.0000 </r>
       <r>    2.7511    0.0000 </r>
       <r>    2.7511    0.0000 </r>
       <r>    2.9860    0.0000 </r>
       <r>    2.9860    0.0000 </r>
       <r>    3.0331    0.0000 </r>
       <r>    3.0331    0.0000 </r>
       <r>    3.8484    0.0000 </r>
       <r>    3.8487    0.0000 </r>
      </set>
      <set comment="kpoint 18">
       <r>  -13.1160    1.0000 </r>
       <r>  -13.1160    1.0000 </r>
       <r>  -12.7717    1.0000 </r>
       <r>  -12.7717    1.0000 </r>
       <r>  -12.7127    1.0000 </r>
       <r>  -12.7127    1.0000 </r>
       <r>   -8.5651    1.0000 </r>
       <r>   -8.5651    1.0000 </r>
       <r>   -8.2102    1.0000 </r>
       <r>   -8.2102    1.0000 </r>
       <r>   -7.9438    1.0000 </r>
       <r>   -7.9438    1.0000 </r>
       <r>   -5.5105    1.0000 </r>
       <r>   -5.5105    1.0000 </r>
       <r>   -5.2116    1.0000 </r>
       <r>   -5.2116    1.0000 </r>
       <r>   -5.0515    1.0000 </r>
       <r>   -5.0515    1.0000 </r>
       <r>   -3.4811    1.0000 </r>
       <r>   -3.4811    1.0000 </r>
       <r>   -2.7052    1.0000 </r>
       <r>   -2.7052    1.0000 </r>
       <r>   -2.0602    1.0000 </r>
       <r>   -2.0602    1.0000 </r>
       <r>   -1.8738    1.0000 </r>
       <r>   -1.8738    1.0000 </r>
       <r>   -1.1606    1.0000 </r>
       <r>   -1.1606    1.0000 </r>
       <r>   -0.3900    1.0000 </r>
       <r>   -0.3900    1.0000 </r>
       <r>    2.6341    0.0000 </r>
       <r>    2.6341    0.0000 </r>
       <r>    3.2728    0.0000 </r>
       <r>    3.2728    0.0000 </r>
       <r>    3.3774    0.0000 </r>
       <r>    3.3774    0.0000 </r>
       <r>    3.6156    0.0000 </r>
       <r>    3.6156    0.0000 </r>
       <r>    4.0812    0.0000 </r>
       <r>    4.0812    0.0000 </r>
      </set>
      <set comment="kpoint 19">
       <r>  -12.3374    1.0000 </r>
       <r>  -12.3374    1.0000 </r>
       <r>  -12.0334    1.0000 </r>
       <r>  -12.0334    1.0000 </r>
       <r>  -11.9787    1.0000 </r>
       <r>  -11.9787    1.0000 </r>
       <r>   -9.1907    1.0000 </r>
       <r>   -9.1907    1.0000 </r>
       <r>   -8.8545    1.0000 </r>
       <r>   -8.8545    1.0000 </r>
       <r>   -8.6771    1.0000 </r>
       <r>   -8.6771    1.0000 </r>
       <r>   -5.8344    1.0000 </r>
       <r>   -5.8344    1.0000 </r>
       <r>   -5.5029    1.0000 </r>
       <r>   -5.5029    1.0000 </r>
       <r>   -5.2321    1.0000 </r>
       <r>   -5.2321    1.0000 </r>
       <r>   -3.9783    1.0000 </r>
       <r>   -3.9783    1.0000 </r>
       <r>   -3.4837    1.0000 </r>
       <r>   -3.4837    1.0000 </r>
       <r>   -3.1521    1.0000 </r>
       <r>   -3.1521    1.0000 </r>
       <r>   -2.2105    1.0000 </r>
       <r>   -2.2105    1.0000 </r>
       <r>   -1.2687    1.0000 </r>
       <r>   -1.2687    1.0000 </r>
       <r>   -0.3477    1.0000 </r>
       <r>   -0.3477    1.0000 </r>
       <r>    2.1030    0.0000 </r>
       <r>    2.1030    0.0000 </r>
       <r>    3.0731    0.0000 </r>
       <r>    3.0731    0.0000 </r>
       <r>    3.9736    0.0000 </r>
       <r>    3.9736    0.0000 </r>
       <r>    4.0580    0.0000 </r>
       <r>    4.0580    0.0000 </r>
       <r>    4.3134    0.0000 </r>
       <r>    4.3134    0.0000 </r>
      </set>
      <set comment="kpoint 20">
       <r>  -11.7290    1.0000 </r>
       <r>  -11.7290    1.0000 </r>
       <r>  -11.5612    1.0000 </r>
       <r>  -11.5612    1.0000 </r>
       <r>  -11.4708    1.0000 </r>
       <r>  -11.4708    1.0000 </r>
       <r>   -9.8181    1.0000 </r>
       <r>   -9.8181    1.0000 </r>
       <r>   -9.5142    1.0000 </r>
       <r>   -9.5142    1.0000 </r>
       <r>   -9.3345    1.0000 </r>
       <r>   -9.3345    1.0000 </r>
       <r>   -5.0752    1.0000 </r>
       <r>   -5.0752    1.0000 </r>
       <r>   -5.0649    1.0000 </r>
       <r>   -5.0649    1.0000 </r>
       <r>   -4.6912    1.0000 </r>
       <r>   -4.6912    1.0000 </r>
       <r>   -4.6857    1.0000 </r>
       <r>   -4.6857    1.0000 </r>
       <r>   -4.4210    1.0000 </r>
       <r>   -4.4210    1.0000 </r>
       <r>   -4.3466    1.0000 </r>
       <r>   -4.3466    1.0000 </r>
       <r>   -2.0057    1.0000 </r>
       <r>   -2.0057    1.0000 </r>
       <r>   -1.1074    1.0000 </r>
       <r>   -1.1074    1.0000 </r>
       <r>   -0.1895    1.0000 </r>
       <r>   -0.1895    1.0000 </r>
       <r>    1.6783    0.0000 </r>
       <r>    1.6783    0.0000 </r>
       <r>    2.6756    0.0000 </r>
       <r>    2.6756    0.0000 </r>
       <r>    3.7470    0.0000 </r>
       <r>    3.7470    0.0000 </r>
       <r>    4.6973    0.0000 </r>
       <r>    4.7007    0.0000 </r>
       <r>    4.8414    0.0000 </r>
       <r>    4.8755    0.0000 </r>
      </set>
     </set>
    </set>
   </array>
  </eigenvalues>
  <separator name="orbital magnetization" >
   <v name="MAGDIPOLOUT">      0.00000000      0.00000000      0.00000000</v>
  </separator>
  <dos>
   <i name="efermi">      0.69511649 </i>
   <total>
    <array>
     <dimension dim="1">gridpoints</dimension>
     <dimension dim="2">spin</dimension>
     <field>energy</field>
     <field>total</field>
     <field>integrated</field>
     <set>
      <set comment="spin 1">
       <r>   -15.9457     0.0000     0.0000 </r>
       <r>   -15.9348     0.0000     0.0000 </r>
       <r>   -15.9239     0.0000     0.0000 </r>
       <r>   -15.9130     0.0000     0.0000 </r>
       <r>   -15.9020     0.0000     0.0000 </r>
       <r>   -15.8911     0.0000     0.0000 </r>
       <r>   -15.8802     0.0000     0.0000 </r>
       <r>   -15.8693     0.0000     0.0000 </r>
       <r>   -15.8584     0.0000     0.0000 </r>
       <r>   -15.8475     0.0000     0.0000 </r>
       <r>   -15.8366     0.0000     0.0000 </r>
       <r>   -15.8257     0.0000     0.0000 </r>
       <r>   -15.8148     0.0000     0.0000 </r>
       <r>   -15.8038     0.0000     0.0000 </r>
       <r>   -15.7929     0.0000     0.0000 </r>
       <r>   -15.7820     0.0000     0.0000 </r>
       <r>   -15.7711     0.0000     0.0000 </r>
       <r>   -15.7602     0.0000     0.0000 </r>
       <r>   -15.7493     0.0000     0.0000 </r>
       <r>   -15.7384     0.0000     0.0000 </r>
       <r>   -15.7275     0.0000     0.0000 </r>
       <r>   -15.7165     0.0000     0.0000 </r>
       <r>   -15.7056     0.0000     0.0000 </r>
       <r>   -15.6947     0.0000     0.0000 </r>
       <r>   -15.6838     0.0000     0.0000 </r>
       <r>   -15.6729     0.0000     0.0000 </r>
       <r>   -15.6620     0.0000     0.0000 </r>
       <r>   -15.6511     0.0000     0.0000 </r>
       <r>   -15.6402     0.0000     0.0000 </r>
       <r>   -15.6293     0.0000     0.0000 </r>
       <r>   -15.6183     0.0000     0.0000 </r>
       <r>   -15.6074     0.0000     0.0000 </r>
       <r>   -15.5965     0.0000     0.0000 </r>
       <r>   -15.5856     0.0000     0.0000 </r>
       <r>   -15.5747     0.0000     0.0000 </r>
       <r>   -15.5638     0.0000     0.0000 </r>
       <r>   -15.5529     0.0000     0.0000 </r>
       <r>   -15.5420     0.0000     0.0000 </r>
       <r>   -15.5310     0.0000     0.0000 </r>
       <r>   -15.5201     0.0000     0.0000 </r>
       <r>   -15.5092     0.0000     0.0000 </r>
       <r>   -15.4983     0.0000     0.0000 </r>
       <r>   -15.4874     0.0000     0.0000 </r>
       <r>   -15.4765     0.0000     0.0000 </r>
       <r>   -15.4656     0.0000     0.0000 </r>
       <r>   -15.4547     0.0000     0.0000 </r>
       <r>   -15.4438     0.0000     0.0000 </r>
       <r>   -15.4328     0.0000     0.0000 </r>
       <r>   -15.4219     0.0000     0.0000 </r>
       <r>   -15.4110     0.0000     0.0000 </r>
       <r>   -15.4001     0.0000     0.0000 </r>
       <r>   -15.3892     0.0000     0.0000 </r>
       <r>   -15.3783     0.0000     0.0000 </r>
       <r>   -15.3674     0.0000     0.0000 </r>
       <r>   -15.3565     0.0000     0.0000 </r>
       <r>   -15.3455     0.0000     0.0000 </r>
       <r>   -15.3346     0.0000     0.0000 </r>
       <r>   -15.3237     0.0000     0.0000 </r>
       <r>   -15.3128     0.0000     0.0000 </r>
       <r>   -15.3019     0.0000     0.0000 </r>
       <r>   -15.2910     0.0000     0.0000 </r>
       <r>   -15.2801     0.0000     0.0000 </r>
       <r>   -15.2692     0.0000     0.0000 </r>
       <r>   -15.2583     0.0000     0.0000 </r>
       <r>   -15.2473     0.0000     0.0000 </r>
       <r>   -15.2364     0.0000     0.0000 </r>
       <r>   -15.2255     0.0000     0.0000 </r>
       <r>   -15.2146     0.0000     0.0000 </r>
       <r>   -15.2037     0.0000     0.0000 </r>
       <r>   -15.1928     0.0000     0.0000 </r>
       <r>   -15.1819     0.0000     0.0000 </r>
       <r>   -15.1710     0.0000     0.0000 </r>
       <r>   -15.1600     0.0000     0.0000 </r>
       <r>   -15.1491     0.0000     0.0000 </r>
       <r>   -15.1382     0.0000     0.0000 </r>
       <r>   -15.1273     0.0000     0.0000 </r>
       <r>   -15.1164     0.0000     0.0000 </r>
       <r>   -15.1055     0.0000     0.0000 </r>
       <r>   -15.0946     0.0000     0.0000 </r>
       <r>   -15.0837     0.0000     0.0000 </r>
       <r>   -15.0728     0.0000     0.0000 </r>
       <r>   -15.0618     0.0000     0.0000 </r>
       <r>   -15.0509     0.0000     0.0000 </r>
       <r>   -15.0400     0.0000     0.0000 </r>
       <r>   -15.0291     0.0000     0.0000 </r>
       <r>   -15.0182     0.0000     0.0000 </r>
       <r>   -15.0073     0.0000     0.0000 </r>
       <r>   -14.9964     0.0000     0.0000 </r>
       <r>   -14.9855     0.0000     0.0000 </r>
       <r>   -14.9745     0.0077     0.0001 </r>
       <r>   -14.9636     0.3410     0.0038 </r>
       <r>   -14.9527     1.8788     0.0243 </r>
       <r>   -14.9418     1.4393     0.0400 </r>
       <r>   -14.9309     0.1499     0.0416 </r>
       <r>   -14.9200     0.0019     0.0417 </r>
       <r>   -14.9091     0.0000     0.0417 </r>
       <r>   -14.8982     0.0000     0.0417 </r>
       <r>   -14.8873     0.0000     0.0417 </r>
       <r>   -14.8763     0.0000     0.0417 </r>
       <r>   -14.8654     0.0000     0.0417 </r>
       <r>   -14.8545     0.0000     0.0417 </r>
       <r>   -14.8436     0.0000     0.0417 </r>
       <r>   -14.8327     0.0001     0.0417 </r>
       <r>   -14.8218     0.0385     0.0421 </r>
       <r>   -14.8109     1.1207     0.0543 </r>
       <r>   -14.8000     4.1637     0.0998 </r>
       <r>   -14.7890     2.4413     0.1264 </r>
       <r>   -14.7781     3.2020     0.1613 </r>
       <r>   -14.7672     5.9747     0.2265 </r>
       <r>   -14.7563     2.0467     0.2489 </r>
       <r>   -14.7454     0.1041     0.2500 </r>
       <r>   -14.7345     0.0006     0.2500 </r>
       <r>   -14.7236     0.0000     0.2500 </r>
       <r>   -14.7127     0.0000     0.2500 </r>
       <r>   -14.7018     0.0092     0.2501 </r>
       <r>   -14.6908     0.3773     0.2542 </r>
       <r>   -14.6799     1.9270     0.2752 </r>
       <r>   -14.6690     1.3712     0.2902 </r>
       <r>   -14.6581     0.1322     0.2917 </r>
       <r>   -14.6472     0.0133     0.2918 </r>
       <r>   -14.6363     0.8588     0.3012 </r>
       <r>   -14.6254     8.1941     0.3906 </r>
       <r>   -14.6145    11.4594     0.5156 </r>
       <r>   -14.6035     3.4567     0.5533 </r>
       <r>   -14.5926     4.2117     0.5993 </r>
       <r>   -14.5817     2.1990     0.6233 </r>
       <r>   -14.5708     0.1553     0.6250 </r>
       <r>   -14.5599     0.0013     0.6250 </r>
       <r>   -14.5490     0.0053     0.6251 </r>
       <r>   -14.5381     0.3700     0.6291 </r>
       <r>   -14.5272     3.1093     0.6630 </r>
       <r>   -14.5163     3.6778     0.7032 </r>
       <r>   -14.5053     2.4065     0.7294 </r>
       <r>   -14.4944     4.2636     0.7759 </r>
       <r>   -14.4835     1.3831     0.7910 </r>
       <r>   -14.4726     0.0587     0.7917 </r>
       <r>   -14.4617     0.1330     0.7931 </r>
       <r>   -14.4508     2.9564     0.8254 </r>
       <r>   -14.4399     8.5345     0.9185 </r>
       <r>   -14.4290     3.4644     0.9563 </r>
       <r>   -14.4180     0.1842     0.9583 </r>
       <r>   -14.4071     0.0011     0.9583 </r>
       <r>   -14.3962     0.0093     0.9584 </r>
       <r>   -14.3853     0.5136     0.9640 </r>
       <r>   -14.3744     3.4663     1.0019 </r>
       <r>   -14.3635     3.3483     1.0384 </r>
       <r>   -14.3526     3.2157     1.0735 </r>
       <r>   -14.3417     8.5185     1.1664 </r>
       <r>   -14.3307     3.6341     1.2061 </r>
       <r>   -14.3198     0.2039     1.2083 </r>
       <r>   -14.3089     0.0013     1.2083 </r>
       <r>   -14.2980     0.0000     1.2083 </r>
       <r>   -14.2871     0.0000     1.2083 </r>
       <r>   -14.2762     0.0000     1.2083 </r>
       <r>   -14.2653     0.0000     1.2083 </r>
       <r>   -14.2544     0.0030     1.2084 </r>
       <r>   -14.2435     0.2644     1.2113 </r>
       <r>   -14.2325     2.7428     1.2412 </r>
       <r>   -14.2216     3.8570     1.2833 </r>
       <r>   -14.2107     1.1362     1.2957 </r>
       <r>   -14.1998     5.6253     1.3570 </r>
       <r>   -14.1889    12.2411     1.4906 </r>
       <r>   -14.1780     4.4221     1.5389 </r>
       <r>   -14.1671     0.2540     1.5416 </r>
       <r>   -14.1562     0.0020     1.5417 </r>
       <r>   -14.1452     0.0000     1.5417 </r>
       <r>   -14.1343     0.0000     1.5417 </r>
       <r>   -14.1234     0.0000     1.5417 </r>
       <r>   -14.1125     0.0008     1.5417 </r>
       <r>   -14.1016     0.1529     1.5433 </r>
       <r>   -14.0907     3.3770     1.5802 </r>
       <r>   -14.0798    11.1652     1.7020 </r>
       <r>   -14.0689     7.4976     1.7838 </r>
       <r>   -14.0580     3.8408     1.8257 </r>
       <r>   -14.0470     3.8010     1.8672 </r>
       <r>   -14.0361     0.7125     1.8750 </r>
       <r>   -14.0252     0.9515     1.8854 </r>
       <r>   -14.0143     6.7302     1.9588 </r>
       <r>   -14.0034     6.6682     2.0316 </r>
       <r>   -13.9925     0.9093     2.0415 </r>
       <r>   -13.9816     0.0427     2.0420 </r>
       <r>   -13.9707     0.9403     2.0522 </r>
       <r>   -13.9597     4.0410     2.0963 </r>
       <r>   -13.9488     2.4300     2.1228 </r>
       <r>   -13.9379     0.1965     2.1250 </r>
       <r>   -13.9270     0.0970     2.1260 </r>
       <r>   -13.9161     2.7194     2.1557 </r>
       <r>   -13.9052    12.3602     2.2906 </r>
       <r>   -13.8943    12.4710     2.4267 </r>
       <r>   -13.8834     2.8011     2.4572 </r>
       <r>   -13.8725     0.1005     2.4583 </r>
       <r>   -13.8615     0.0004     2.4583 </r>
       <r>   -13.8506     0.0000     2.4583 </r>
       <r>   -13.8397     0.0010     2.4583 </r>
       <r>   -13.8288     0.1762     2.4603 </r>
       <r>   -13.8179     3.5234     2.4987 </r>
       <r>   -13.8070    10.6543     2.6150 </r>
       <r>   -13.7961     7.2137     2.6937 </r>
       <r>   -13.7852     1.3005     2.7079 </r>
       <r>   -13.7742     0.0419     2.7083 </r>
       <r>   -13.7633     0.0002     2.7083 </r>
       <r>   -13.7524     0.0000     2.7083 </r>
       <r>   -13.7415     0.0000     2.7083 </r>
       <r>   -13.7306     0.0000     2.7083 </r>
       <r>   -13.7197     0.0000     2.7083 </r>
       <r>   -13.7088     0.0000     2.7083 </r>
       <r>   -13.6979     0.0013     2.7083 </r>
       <r>   -13.6870     0.1975     2.7105 </r>
       <r>   -13.6760     3.5803     2.7496 </r>
       <r>   -13.6651     8.5203     2.8425 </r>
       <r>   -13.6542     2.8523     2.8737 </r>
       <r>   -13.6433     0.3528     2.8775 </r>
       <r>   -13.6324     3.8388     2.9194 </r>
       <r>   -13.6215     8.4719     3.0118 </r>
       <r>   -13.6106     2.6276     3.0405 </r>
       <r>   -13.5997     0.1049     3.0417 </r>
       <r>   -13.5887     0.0005     3.0417 </r>
       <r>   -13.5778     0.0000     3.0417 </r>
       <r>   -13.5669     0.0000     3.0417 </r>
       <r>   -13.5560     0.0000     3.0417 </r>
       <r>   -13.5451     0.0000     3.0417 </r>
       <r>   -13.5342     0.0000     3.0417 </r>
       <r>   -13.5233     0.0000     3.0417 </r>
       <r>   -13.5124     0.0212     3.0419 </r>
       <r>   -13.5015     1.1075     3.0540 </r>
       <r>   -13.4905     7.0913     3.1314 </r>
       <r>   -13.4796     6.2810     3.1999 </r>
       <r>   -13.4687     0.7636     3.2082 </r>
       <r>   -13.4578     0.2021     3.2104 </r>
       <r>   -13.4469     2.4028     3.2367 </r>
       <r>   -13.4360     4.0550     3.2809 </r>
       <r>   -13.4251     0.9578     3.2914 </r>
       <r>   -13.4142     0.0286     3.2917 </r>
       <r>   -13.4032     0.0183     3.2919 </r>
       <r>   -13.3923     1.2013     3.3050 </r>
       <r>   -13.3814     9.5834     3.4095 </r>
       <r>   -13.3705    10.4985     3.5241 </r>
       <r>   -13.3596     2.0503     3.5465 </r>
       <r>   -13.3487     3.3822     3.5834 </r>
       <r>   -13.3378     3.3465     3.6199 </r>
       <r>   -13.3269     0.4598     3.6249 </r>
       <r>   -13.3160     0.0077     3.6250 </r>
       <r>   -13.3050     0.0000     3.6250 </r>
       <r>   -13.2941     0.0121     3.6251 </r>
       <r>   -13.2832     0.8008     3.6339 </r>
       <r>   -13.2723     6.3904     3.7036 </r>
       <r>   -13.2614     6.9935     3.7799 </r>
       <r>   -13.2505     1.0575     3.7915 </r>
       <r>   -13.2396     0.0227     3.7917 </r>
       <r>   -13.2287     0.3963     3.7960 </r>
       <r>   -13.2177     6.5016     3.8670 </r>
       <r>   -13.2068    16.3559     4.0454 </r>
       <r>   -13.1959     6.8805     4.1205 </r>
       <r>   -13.1850     1.4961     4.1368 </r>
       <r>   -13.1741     4.1264     4.1819 </r>
       <r>   -13.1632     2.2585     4.2065 </r>
       <r>   -13.1523     0.1651     4.2083 </r>
       <r>   -13.1414     0.0039     4.2084 </r>
       <r>   -13.1305     0.3091     4.2117 </r>
       <r>   -13.1195     4.3881     4.2596 </r>
       <r>   -13.1086     8.3065     4.3503 </r>
       <r>   -13.0977     2.6678     4.3794 </r>
       <r>   -13.0868     3.4368     4.4169 </r>
       <r>   -13.0759     3.3372     4.4533 </r>
       <r>   -13.0650     0.5165     4.4589 </r>
       <r>   -13.0541     1.9901     4.4806 </r>
       <r>   -13.0432    10.2612     4.5926 </r>
       <r>   -13.0322     9.2360     4.6934 </r>
       <r>   -13.0213     1.3439     4.7080 </r>
       <r>   -13.0104     0.0263     4.7083 </r>
       <r>   -12.9995     0.0001     4.7083 </r>
       <r>   -12.9886     0.0000     4.7083 </r>
       <r>   -12.9777     0.0004     4.7083 </r>
       <r>   -12.9668     0.1001     4.7094 </r>
       <r>   -12.9559     2.5658     4.7374 </r>
       <r>   -12.9450     8.4537     4.8297 </r>
       <r>   -12.9340     3.9131     4.8724 </r>
       <r>   -12.9231     0.2393     4.8750 </r>
       <r>   -12.9122     0.0017     4.8750 </r>
       <r>   -12.9013     0.0004     4.8750 </r>
       <r>   -12.8904     0.1010     4.8761 </r>
       <r>   -12.8795     2.5778     4.9042 </r>
       <r>   -12.8686     8.4575     4.9965 </r>
       <r>   -12.8577     3.9261     5.0394 </r>
       <r>   -12.8467     1.5242     5.0560 </r>
       <r>   -12.8358     7.4017     5.1368 </r>
       <r>   -12.8249     5.9082     5.2012 </r>
       <r>   -12.8140     0.6430     5.2082 </r>
       <r>   -12.8031     0.0629     5.2089 </r>
       <r>   -12.7922     1.3683     5.2239 </r>
       <r>   -12.7813     5.5612     5.2845 </r>
       <r>   -12.7704     9.3373     5.3864 </r>
       <r>   -12.7595     5.9562     5.4514 </r>
       <r>   -12.7485     0.6253     5.4582 </r>
       <r>   -12.7376     0.0112     5.4584 </r>
       <r>   -12.7267     0.3553     5.4622 </r>
       <r>   -12.7158     4.6612     5.5131 </r>
       <r>   -12.7049     8.1805     5.6024 </r>
       <r>   -12.6940     2.0111     5.6243 </r>
       <r>   -12.6831     0.0946     5.6253 </r>
       <r>   -12.6722     1.6584     5.6434 </r>
       <r>   -12.6612    10.8187     5.7615 </r>
       <r>   -12.6503    12.0225     5.8927 </r>
       <r>   -12.6394     5.1267     5.9486 </r>
       <r>   -12.6285     1.1161     5.9608 </r>
       <r>   -12.6176     3.9976     6.0044 </r>
       <r>   -12.6067     8.4375     6.0965 </r>
       <r>   -12.5958     2.5159     6.1239 </r>
       <r>   -12.5849     0.1004     6.1250 </r>
       <r>   -12.5740     0.4011     6.1294 </r>
       <r>   -12.5630     5.2520     6.1867 </r>
       <r>   -12.5521    10.2752     6.2988 </r>
       <r>   -12.5412     3.0388     6.3320 </r>
       <r>   -12.5303     0.1211     6.3333 </r>
       <r>   -12.5194     0.0006     6.3333 </r>
       <r>   -12.5085     0.0002     6.3333 </r>
       <r>   -12.4976     0.0664     6.3341 </r>
       <r>   -12.4867     2.8495     6.3652 </r>
       <r>   -12.4757    15.1968     6.5310 </r>
       <r>   -12.4648    11.2835     6.6541 </r>
       <r>   -12.4539     1.1379     6.6665 </r>
       <r>   -12.4430     0.0137     6.6667 </r>
       <r>   -12.4321     0.0000     6.6667 </r>
       <r>   -12.4212     0.0000     6.6667 </r>
       <r>   -12.4103     0.0000     6.6667 </r>
       <r>   -12.3994     0.0012     6.6667 </r>
       <r>   -12.3885     0.1859     6.6687 </r>
       <r>   -12.3775     3.7994     6.7102 </r>
       <r>   -12.3666    12.0996     6.8422 </r>
       <r>   -12.3557     6.3993     6.9120 </r>
       <r>   -12.3448     2.6877     6.9414 </r>
       <r>   -12.3339     8.4386     7.0334 </r>
       <r>   -12.3230     6.5026     7.1044 </r>
       <r>   -12.3121     4.4945     7.1534 </r>
       <r>   -12.3012     1.1713     7.1662 </r>
       <r>   -12.2902     0.0417     7.1667 </r>
       <r>   -12.2793     0.0002     7.1667 </r>
       <r>   -12.2684     0.0000     7.1667 </r>
       <r>   -12.2575     0.0000     7.1667 </r>
       <r>   -12.2466     0.0000     7.1667 </r>
       <r>   -12.2357     0.0000     7.1667 </r>
       <r>   -12.2248     0.0000     7.1667 </r>
       <r>   -12.2139     0.0001     7.1667 </r>
       <r>   -12.2030     0.0274     7.1670 </r>
       <r>   -12.1920     0.6816     7.1744 </r>
       <r>   -12.1811     2.6593     7.2034 </r>
       <r>   -12.1702     4.4564     7.2520 </r>
       <r>   -12.1593     3.2434     7.2874 </r>
       <r>   -12.1484     1.2053     7.3006 </r>
       <r>   -12.1375     6.5019     7.3715 </r>
       <r>   -12.1266     9.2146     7.4721 </r>
       <r>   -12.1157     9.6925     7.5779 </r>
       <r>   -12.1047     7.3242     7.6578 </r>
       <r>   -12.0938     4.1389     7.7029 </r>
       <r>   -12.0829     3.8150     7.7446 </r>
       <r>   -12.0720     8.5612     7.8380 </r>
       <r>   -12.0611     3.2332     7.8733 </r>
       <r>   -12.0502     0.2945     7.8765 </r>
       <r>   -12.0393     2.9830     7.9090 </r>
       <r>   -12.0284     8.5404     8.0022 </r>
       <r>   -12.0175     3.7265     8.0429 </r>
       <r>   -12.0065     3.8166     8.0845 </r>
       <r>   -11.9956    11.1466     8.2062 </r>
       <r>   -11.9847    15.0762     8.3707 </r>
       <r>   -11.9738    11.8270     8.4997 </r>
       <r>   -11.9629     3.6574     8.5396 </r>
       <r>   -11.9520     0.6330     8.5465 </r>
       <r>   -11.9411     5.5140     8.6067 </r>
       <r>   -11.9302    12.6720     8.7450 </r>
       <r>   -11.9192    16.7029     8.9272 </r>
       <r>   -11.9083    15.7999     9.0996 </r>
       <r>   -11.8974     5.7135     9.1620 </r>
       <r>   -11.8865     0.4270     9.1666 </r>
       <r>   -11.8756     0.2280     9.1691 </r>
       <r>   -11.8647     3.7956     9.2105 </r>
       <r>   -11.8538     8.4818     9.3031 </r>
       <r>   -11.8429     2.7468     9.3331 </r>
       <r>   -11.8320     2.4554     9.3599 </r>
       <r>   -11.8210     8.8869     9.4568 </r>
       <r>   -11.8101     7.6803     9.5406 </r>
       <r>   -11.7992     3.4963     9.5788 </r>
       <r>   -11.7883     0.4102     9.5833 </r>
       <r>   -11.7774     0.0063     9.5833 </r>
       <r>   -11.7665     0.0038     9.5834 </r>
       <r>   -11.7556     0.3044     9.5867 </r>
       <r>   -11.7447     2.9949     9.6194 </r>
       <r>   -11.7337     5.5663     9.6801 </r>
       <r>   -11.7228     4.9305     9.7339 </r>
[...]
        <r>  0.0307  0.0042  0.0156  0.0038  0.0000  0.0000  0.0000  0.0000  0.0000 </r>
        <r>  0.0123  0.0017  0.0062  0.0094  0.0000  0.0000  0.0000  0.0000  0.0000 </r>
        <r>  0.0307  0.0042  0.0156  0.0038  0.0000  0.0000  0.0000  0.0000  0.0000 </r>
        <r>  0.0123  0.0017  0.0062  0.0094  0.0000  0.0000  0.0000  0.0000  0.0000 </r>
        <r>  0.0084  0.0015  0.0025  0.0032  0.0000  0.0000  0.0000  0.0000  0.0000 </r>
        <r>  0.0210  0.0037  0.0063  0.0013  0.0000  0.0000  0.0000  0.0000  0.0000 </r>
        <r>  0.0091  0.0014  0.0080  0.0137  0.0000  0.0000  0.0000  0.0000  0.0000 </r>
        <r>  0.0228  0.0034  0.0201  0.0055  0.0000  0.0000  0.0000  0.0000  0.0000 </r>
       </set>
       <set comment="band 25">
        <r>  0.0011  0.0024  0.0010  0.0089  0.0000  0.0000  0.0000  0.0000  0.0000 </r>
        <r>  0.0130  0.0280  0.0116  0.0008  0.0000  0.0000  0.0000  0.0000  0.0000 </r>
        <r>  0.0000  0.0027  0.0002  0.0038  0.0000  0.0000  0.0000  0.0000  0.0000 </r>
        <r>  0.0000  0.0320  0.0028  0.0003  0.0000  0.0000  0.0000  0.0000  0.0000 </r>
        <r>  0.0070  0.0650  0.0139  0.0011  0.0000  0.0000  0.0000  0.0000  0.0000 </r>
        <r>  0.0006  0.0055  0.0012  0.0131  0.0000  0.0000  0.0000  0.0000  0.0000 </r>
        <r>  0.0070  0.0650  0.0139  0.0011  0.0000  0.0000  0.0000  0.0000  0.0000 </r>
        <r>  0.0006  0.0055  0.0012  0.0131  0.0000  0.0000  0.0000  0.0000  0.0000 </r>
        <r>  0.0000  0.0027  0.0002  0.0038  0.0000  0.0000  0.0000  0.0000  0.0000 </r>
        <r>  0.0000  0.0320  0.0028  0.0003  0.0000  0.0000  0.0000  0.0000  0.0000 </r>
        <r>  0.0011  0.0024  0.0010  0.0089  0.0000  0.0000  0.0000  0.0000  0.0000 </r>
        <r>  0.0130  0.0280  0.0116  0.0008  0.0000  0.0000  0.0000  0.0000  0.0000 </r>
       </set>
       <set comment="band 26">
        <r>  0.0130  0.0280  0.0116  0.0008  0.0000  0.0000  0.0000  0.0000  0.0000 </r>
        <r>  0.0011  0.0024  0.0010  0.0089  0.0000  0.0000  0.0000  0.0000  0.0000 </r>
        <r>  0.0000  0.0320  0.0028  0.0003  0.0000  0.0000  0.0000  0.0000  0.0000 </r>
        <r>  0.0000  0.0027  0.0002  0.0038  0.0000  0.0000  0.0000  0.0000  0.0000 </r>
        <r>  0.0006  0.0055  0.0012  0.0131  0.0000  0.0000  0.0000  0.0000  0.0000 </r>
        <r>  0.0070  0.0650  0.0139  0.0011  0.0000  0.0000  0.0000  0.0000  0.0000 </r>
        <r>  0.0006  0.0055  0.0012  0.0131  0.0000  0.0000  0.0000  0.0000  0.0000 </r>
        <r>  0.0070  0.0650  0.0139  0.0011  0.0000  0.0000  0.0000  0.0000  0.0000 </r>
        <r>  0.0000  0.0320  0.0028  0.0003  0.0000  0.0000  0.0000  0.0000  0.0000 </r>
        <r>  0.0000  0.0027  0.0002  0.0038  0.0000  0.0000  0.0000  0.0000  0.0000 </r>
        <r>  0.0130  0.0280  0.0116  0.0008  0.0000  0.0000  0.0000  0.0000  0.0000 </r>
        <r>  0.0011  0.0024  0.0010  0.0089  0.0000  0.0000  0.0000  0.0000  0.0000 </r>
       </set>
       <set comment="band 27">
        <r>  0.0097  0.0587  0.0105  0.0022  0.0000  0.0000  0.0000  0.0000  0.0000 </r>
        <r>  0.0024  0.0147  0.0026  0.0089  0.0000  0.0000  0.0000  0.0000  0.0000 </r>
        <r>  0.0071  0.0629  0.0094  0.0021  0.0000  0.0000  0.0000  0.0000  0.0000 </r>
        <r>  0.0018  0.0157  0.0023  0.0085  0.0000  0.0000  0.0000  0.0000  0.0000 </r>
        <r>  0.0021  0.0002  0.0004  0.0004  0.0000  0.0000  0.0000  0.0000  0.0000 </r>
        <r>  0.0085  0.0010  0.0015  0.0001  0.0000  0.0000  0.0000  0.0000  0.0000 </r>
        <r>  0.0021  0.0002  0.0004  0.0004  0.0000  0.0000  0.0000  0.0000  0.0000 </r>
        <r>  0.0085  0.0010  0.0015  0.0001  0.0000  0.0000  0.0000  0.0000  0.0000 </r>
        <r>  0.0071  0.0629  0.0094  0.0021  0.0000  0.0000  0.0000  0.0000  0.0000 </r>
        <r>  0.0018  0.0157  0.0023  0.0085  0.0000  0.0000  0.0000  0.0000  0.0000 </r>
        <r>  0.0097  0.0587  0.0105  0.0022  0.0000  0.0000  0.0000  0.0000  0.0000 </r>
        <r>  0.0024  0.0147  0.0026  0.0089  0.0000  0.0000  0.0000  0.0000  0.0000 </r>
       </set>
       <set comment="band 28">
        <r>  0.0024  0.0147  0.0026  0.0089  0.0000  0.0000  0.0000  0.0000  0.0000 </r>
        <r>  0.0097  0.0587  0.0105  0.0022  0.0000  0.0000  0.0000  0.0000  0.0000 </r>
        <r>  0.0018  0.0157  0.0023  0.0085  0.0000  0.0000  0.0000  0.0000  0.0000 </r>
        <r>  0.0071  0.0629  0.0094  0.0021  0.0000  0.0000  0.0000  0.0000  0.0000 </r>
        <r>  0.0085  0.0010  0.0015  0.0001  0.0000  0.0000  0.0000  0.0000  0.0000 </r>
        <r>  0.0021  0.0002  0.0004  0.0004  0.0000  0.0000  0.0000  0.0000  0.0000 </r>
        <r>  0.0085  0.0010  0.0015  0.0001  0.0000  0.0000  0.0000  0.0000  0.0000 </r>
        <r>  0.0021  0.0002  0.0004  0.0004  0.0000  0.0000  0.0000  0.0000  0.0000 </r>
        <r>  0.0018  0.0157  0.0023  0.0085  0.0000  0.0000  0.0000  0.0000  0.0000 </r>
        <r>  0.0071  0.0629  0.0094  0.0021  0.0000  0.0000  0.0000  0.0000  0.0000 </r>
        <r>  0.0024  0.0147  0.0026  0.0089  0.0000  0.0000  0.0000  0.0000  0.0000 </r>
        <r>  0.0097  0.0587  0.0105  0.0022  0.0000  0.0000  0.0000  0.0000  0.0000 </r>
       </set>
       <set comment="band 29">
        <r>  0.0009  0.0292  0.0015  0.0018  0.0000  0.0000  0.0000  0.0000  0.0000 </r>
        <r>  0.0010  0.0321  0.0017  0.0016  0.0000  0.0000  0.0000  0.0000  0.0000 </r>
        <r>  0.0092  0.0181  0.0042  0.0031  0.0000  0.0000  0.0000  0.0000  0.0000 </r>
        <r>  0.0101  0.0198  0.0046  0.0028  0.0000  0.0000  0.0000  0.0000  0.0000 </r>
        <r>  0.0074  0.0427  0.0054  0.0039  0.0000  0.0000  0.0000  0.0000  0.0000 </r>
        <r>  0.0068  0.0389  0.0049  0.0043  0.0000  0.0000  0.0000  0.0000  0.0000 </r>
        <r>  0.0074  0.0427  0.0054  0.0039  0.0000  0.0000  0.0000  0.0000  0.0000 </r>
        <r>  0.0068  0.0389  0.0049  0.0043  0.0000  0.0000  0.0000  0.0000  0.0000 </r>
        <r>  0.0092  0.0181  0.0042  0.0031  0.0000  0.0000  0.0000  0.0000  0.0000 </r>
        <r>  0.0101  0.0198  0.0046  0.0028  0.0000  0.0000  0.0000  0.0000  0.0000 </r>
        <r>  0.0009  0.0292  0.0015  0.0018  0.0000  0.0000  0.0000  0.0000  0.0000 </r>
        <r>  0.0010  0.0321  0.0017  0.0016  0.0000  0.0000  0.0000  0.0000  0.0000 </r>
       </set>
       <set comment="band 30">
        <r>  0.0010  0.0321  0.0017  0.0016  0.0000  0.0000  0.0000  0.0000  0.0000 </r>
        <r>  0.0009  0.0292  0.0015  0.0018  0.0000  0.0000  0.0000  0.0000  0.0000 </r>
        <r>  0.0101  0.0198  0.0046  0.0028  0.0000  0.0000  0.0000  0.0000  0.0000 </r>
        <r>  0.0092  0.0181  0.0042  0.0031  0.0000  0.0000  0.0000  0.0000  0.0000 </r>
        <r>  0.0068  0.0389  0.0049  0.0043  0.0000  0.0000  0.0000  0.0000  0.0000 </r>
        <r>  0.0074  0.0427  0.0054  0.0039  0.0000  0.0000  0.0000  0.0000  0.0000 </r>
        <r>  0.0068  0.0389  0.0049  0.0043  0.0000  0.0000  0.0000  0.0000  0.0000 </r>
        <r>  0.0074  0.0427  0.0054  0.0039  0.0000  0.0000  0.0000  0.0000  0.0000 </r>
        <r>  0.0101  0.0198  0.0046  0.0028  0.0000  0.0000  0.0000  0.0000  0.0000 </r>
        <r>  0.0092  0.0181  0.0042  0.0031  0.0000  0.0000  0.0000  0.0000  0.0000 </r>
        <r>  0.0010  0.0321  0.0017  0.0016  0.0000  0.0000  0.0000  0.0000  0.0000 </r>
        <r>  0.0009  0.0292  0.0015  0.0018  0.0000  0.0000  0.0000  0.0000  0.0000 </r>
       </set>
       <set comment="band 31">
        <r>  0.0035  0.0319  0.0019  0.0002  0.0000  0.0000  0.0000  0.0000  0.0000 </r>
        <r>  0.0009  0.0077  0.0005  0.0010  0.0000  0.0000  0.0000  0.0000  0.0000 </r>
        <r>  0.0100  0.0077  0.0004  0.0001  0.0000  0.0000  0.0000  0.0000  0.0000 </r>
        <r>  0.0024  0.0018  0.0001  0.0002  0.0000  0.0000  0.0000  0.0000  0.0000 </r>
        <r>  0.0028  0.0088  0.0005  0.0011  0.0000  0.0000  0.0000  0.0000  0.0000 </r>
        <r>  0.0115  0.0363  0.0019  0.0003  0.0000  0.0000  0.0000  0.0000  0.0000 </r>
        <r>  0.0028  0.0088  0.0005  0.0011  0.0000  0.0000  0.0000  0.0000  0.0000 </r>
        <r>  0.0115  0.0363  0.0019  0.0003  0.0000  0.0000  0.0000  0.0000  0.0000 </r>
        <r>  0.0100  0.0077  0.0004  0.0001  0.0000  0.0000  0.0000  0.0000  0.0000 </r>
        <r>  0.0024  0.0018  0.0001  0.0002  0.0000  0.0000  0.0000  0.0000  0.0000 </r>
        <r>  0.0035  0.0319  0.0019  0.0002  0.0000  0.0000  0.0000  0.0000  0.0000 </r>
        <r>  0.0009  0.0077  0.0005  0.0010  0.0000  0.0000  0.0000  0.0000  0.0000 </r>
       </set>
       <set comment="band 32">
        <r>  0.0009  0.0077  0.0005  0.0010  0.0000  0.0000  0.0000  0.0000  0.0000 </r>
        <r>  0.0035  0.0319  0.0019  0.0002  0.0000  0.0000  0.0000  0.0000  0.0000 </r>
        <r>  0.0024  0.0018  0.0001  0.0002  0.0000  0.0000  0.0000  0.0000  0.0000 </r>
        <r>  0.0100  0.0077  0.0004  0.0001  0.0000  0.0000  0.0000  0.0000  0.0000 </r>
        <r>  0.0115  0.0363  0.0019  0.0003  0.0000  0.0000  0.0000  0.0000  0.0000 </r>
        <r>  0.0028  0.0088  0.0005  0.0011  0.0000  0.0000  0.0000  0.0000  0.0000 </r>
        <r>  0.0115  0.0363  0.0019  0.0003  0.0000  0.0000  0.0000  0.0000  0.0000 </r>
        <r>  0.0028  0.0088  0.0005  0.0011  0.0000  0.0000  0.0000  0.0000  0.0000 </r>
        <r>  0.0024  0.0018  0.0001  0.0002  0.0000  0.0000  0.0000  0.0000  0.0000 </r>
        <r>  0.0100  0.0077  0.0004  0.0001  0.0000  0.0000  0.0000  0.0000  0.0000 </r>
        <r>  0.0009  0.0077  0.0005  0.0010  0.0000  0.0000  0.0000  0.0000  0.0000 </r>
        <r>  0.0035  0.0319  0.0019  0.0002  0.0000  0.0000  0.0000  0.0000  0.0000 </r>
       </set>
       <set comment="band 33">
        <r>  0.0060  0.0226  0.0020  0.0016  0.0000  0.0000  0.0000  0.0000  0.0000 </r>
        <r>  0.0052  0.0196  0.0017  0.0019  0.0000  0.0000  0.0000  0.0000  0.0000 </r>
        <r>  0.0046  0.0274  0.0008  0.0009  0.0000  0.0000  0.0000  0.0000  0.0000 </r>
        <r>  0.0040  0.0238  0.0007  0.0011  0.0000  0.0000  0.0000  0.0000  0.0000 </r>
        <r>  0.0008  0.0035  0.0006  0.0002  0.0000  0.0000  0.0000  0.0000  0.0000 </r>
        <r>  0.0009  0.0041  0.0007  0.0002  0.0000  0.0000  0.0000  0.0000  0.0000 </r>
        <r>  0.0008  0.0035  0.0006  0.0002  0.0000  0.0000  0.0000  0.0000  0.0000 </r>
        <r>  0.0009  0.0041  0.0007  0.0002  0.0000  0.0000  0.0000  0.0000  0.0000 </r>
        <r>  0.0046  0.0274  0.0008  0.0009  0.0000  0.0000  0.0000  0.0000  0.0000 </r>
        <r>  0.0040  0.0238  0.0007  0.0011  0.0000  0.0000  0.0000  0.0000  0.0000 </r>
        <r>  0.0060  0.0226  0.0020  0.0016  0.0000  0.0000  0.0000  0.0000  0.0000 </r>
        <r>  0.0052  0.0196  0.0017  0.0019  0.0000  0.0000  0.0000  0.0000  0.0000 </r>
       </set>
       <set comment="band 34">
        <r>  0.0052  0.0196  0.0017  0.0019  0.0000  0.0000  0.0000  0.0000  0.0000 </r>
        <r>  0.0060  0.0226  0.0020  0.0016  0.0000  0.0000  0.0000  0.0000  0.0000 </r>
        <r>  0.0040  0.0238  0.0007  0.0011  0.0000  0.0000  0.0000  0.0000  0.0000 </r>
        <r>  0.0046  0.0274  0.0008  0.0009  0.0000  0.0000  0.0000  0.0000  0.0000 </r>
        <r>  0.0009  0.0041  0.0007  0.0002  0.0000  0.0000  0.0000  0.0000  0.0000 </r>
        <r>  0.0008  0.0035  0.0006  0.0002  0.0000  0.0000  0.0000  0.0000  0.0000 </r>
        <r>  0.0009  0.0041  0.0007  0.0002  0.0000  0.0000  0.0000  0.0000  0.0000 </r>
        <r>  0.0008  0.0035  0.0006  0.0002  0.0000  0.0000  0.0000  0.0000  0.0000 </r>
        <r>  0.0040  0.0238  0.0007  0.0011  0.0000  0.0000  0.0000  0.0000  0.0000 </r>
        <r>  0.0046  0.0274  0.0008  0.0009  0.0000  0.0000  0.0000  0.0000  0.0000 </r>
        <r>  0.0052  0.0196  0.0017  0.0019  0.0000  0.0000  0.0000  0.0000  0.0000 </r>
        <r>  0.0060  0.0226  0.0020  0.0016  0.0000  0.0000  0.0000  0.0000  0.0000 </r>
       </set>
       <set comment="band 35">
        <r>  0.0043  0.0108  0.0001  0.0011  0.0000  0.0000  0.0000  0.0000  0.0000 </r>
        <r>  0.0039  0.0097  0.0000  0.0012  0.0000  0.0000  0.0000  0.0000  0.0000 </r>
        <r>  0.0016  0.0241  0.0024  0.0022  0.0000  0.0000  0.0000  0.0000  0.0000 </r>
        <r>  0.0015  0.0217  0.0022  0.0025  0.0000  0.0000  0.0000  0.0000  0.0000 </r>
        <r>  0.0030  0.0222  0.0010  0.0032  0.0000  0.0000  0.0000  0.0000  0.0000 </r>
        <r>  0.0033  0.0246  0.0011  0.0029  0.0000  0.0000  0.0000  0.0000  0.0000 </r>
        <r>  0.0030  0.0222  0.0010  0.0032  0.0000  0.0000  0.0000  0.0000  0.0000 </r>
        <r>  0.0033  0.0246  0.0011  0.0029  0.0000  0.0000  0.0000  0.0000  0.0000 </r>
        <r>  0.0016  0.0241  0.0024  0.0022  0.0000  0.0000  0.0000  0.0000  0.0000 </r>
        <r>  0.0015  0.0217  0.0022  0.0025  0.0000  0.0000  0.0000  0.0000  0.0000 </r>
        <r>  0.0043  0.0108  0.0001  0.0011  0.0000  0.0000  0.0000  0.0000  0.0000 </r>
        <r>  0.0039  0.0097  0.0000  0.0012  0.0000  0.0000  0.0000  0.0000  0.0000 </r>
       </set>
       <set comment="band 36">
        <r>  0.0039  0.0097  0.0000  0.0012  0.0000  0.0000  0.0000  0.0000  0.0000 </r>
        <r>  0.0043  0.0108  0.0001  0.0011  0.0000  0.0000  0.0000  0.0000  0.0000 </r>
        <r>  0.0015  0.0217  0.0022  0.0025  0.0000  0.0000  0.0000  0.0000  0.0000 </r>
        <r>  0.0016  0.0241  0.0024  0.0022  0.0000  0.0000  0.0000  0.0000  0.0000 </r>
        <r>  0.0033  0.0246  0.0011  0.0029  0.0000  0.0000  0.0000  0.0000  0.0000 </r>
        <r>  0.0030  0.0222  0.0010  0.0032  0.0000  0.0000  0.0000  0.0000  0.0000 </r>
        <r>  0.0033  0.0246  0.0011  0.0029  0.0000  0.0000  0.0000  0.0000  0.0000 </r>
        <r>  0.0030  0.0222  0.0010  0.0032  0.0000  0.0000  0.0000  0.0000  0.0000 </r>
        <r>  0.0015  0.0217  0.0022  0.0025  0.0000  0.0000  0.0000  0.0000  0.0000 </r>
        <r>  0.0016  0.0241  0.0024  0.0022  0.0000  0.0000  0.0000  0.0000  0.0000 </r>
        <r>  0.0039  0.0097  0.0000  0.0012  0.0000  0.0000  0.0000  0.0000  0.0000 </r>
        <r>  0.0043  0.0108  0.0001  0.0011  0.0000  0.0000  0.0000  0.0000  0.0000 </r>
       </set>
       <set comment="band 37">
        <r>  0.0007  0.0010  0.0109  0.0035  0.0000  0.0000  0.0000  0.0000  0.0000 </r>
        <r>  0.0005  0.0008  0.0086  0.0045  0.0000  0.0000  0.0000  0.0000  0.0000 </r>
        <r>  0.0011  0.0006  0.0132  0.0057  0.0000  0.0000  0.0000  0.0000  0.0000 </r>
        <r>  0.0009  0.0005  0.0104  0.0071  0.0000  0.0000  0.0000  0.0000  0.0000 </r>
        <r>  0.0028  0.0023  0.0468  0.0249  0.0000  0.0000  0.0000  0.0000  0.0000 </r>
        <r>  0.0031  0.0027  0.0518  0.0224  0.0000  0.0000  0.0000  0.0000  0.0000 </r>
        <r>  0.0028  0.0023  0.0467  0.0249  0.0000  0.0000  0.0000  0.0000  0.0000 </r>
        <r>  0.0031  0.0027  0.0518  0.0223  0.0000  0.0000  0.0000  0.0000  0.0000 </r>
        <r>  0.0011  0.0006  0.0132  0.0053  0.0000  0.0000  0.0000  0.0000  0.0000 </r>
        <r>  0.0008  0.0004  0.0096  0.0072  0.0000  0.0000  0.0000  0.0000  0.0000 </r>
        <r>  0.0007  0.0010  0.0109  0.0032  0.0000  0.0000  0.0000  0.0000  0.0000 </r>
        <r>  0.0005  0.0007  0.0079  0.0045  0.0000  0.0000  0.0000  0.0000  0.0000 </r>
       </set>
       <set comment="band 38">
        <r>  0.0009  0.0011  0.0146  0.0051  0.0000  0.0000  0.0000  0.0000  0.0000 </r>
        <r>  0.0008  0.0010  0.0120  0.0062  0.0000  0.0000  0.0000  0.0000  0.0000 </r>
        <r>  0.0013  0.0007  0.0173  0.0079  0.0000  0.0000  0.0000  0.0000  0.0000 </r>
        <r>  0.0012  0.0007  0.0145  0.0091  0.0000  0.0000  0.0000  0.0000  0.0000 </r>
        <r>  0.0034  0.0028  0.0583  0.0199  0.0000  0.0000  0.0000  0.0000  0.0000 </r>
        <r>  0.0025  0.0021  0.0409  0.0281  0.0000  0.0000  0.0000  0.0000  0.0000 </r>
        <r>  0.0034  0.0028  0.0574  0.0193  0.0000  0.0000  0.0000  0.0000  0.0000 </r>
        <r>  0.0025  0.0022  0.0403  0.0273  0.0000  0.0000  0.0000  0.0000  0.0000 </r>
        <r>  0.0008  0.0004  0.0090  0.0034  0.0000  0.0000  0.0000  0.0000  0.0000 </r>
        <r>  0.0006  0.0003  0.0057  0.0049  0.0000  0.0000  0.0000  0.0000  0.0000 </r>
        <r>  0.0005  0.0007  0.0074  0.0017  0.0000  0.0000  0.0000  0.0000  0.0000 </r>
        <r>  0.0003  0.0006  0.0045  0.0030  0.0000  0.0000  0.0000  0.0000  0.0000 </r>
       </set>
       <set comment="band 39">
        <r>  0.0021  0.0014  0.0418  0.0094  0.0000  0.0000  0.0000  0.0000  0.0000 </r>
        <r>  0.0010  0.0007  0.0199  0.0196  0.0000  0.0000  0.0000  0.0000  0.0000 </r>
        <r>  0.0021  0.0016  0.0464  0.0104  0.0000  0.0000  0.0000  0.0000  0.0000 </r>
        <r>  0.0010  0.0007  0.0220  0.0221  0.0000  0.0000  0.0000  0.0000  0.0000 </r>
        <r>  0.0000  0.0000  0.0002  0.0006  0.0000  0.0000  0.0000  0.0000  0.0000 </r>
        <r>  0.0001  0.0000  0.0007  0.0002  0.0000  0.0000  0.0000  0.0000  0.0000 </r>
        <r>  0.0000  0.0000  0.0002  0.0000  0.0000  0.0000  0.0000  0.0000  0.0000 </r>
        <r>  0.0000  0.0000  0.0001  0.0001  0.0000  0.0000  0.0000  0.0000  0.0000 </r>
        <r>  0.0028  0.0020  0.0633  0.0109  0.0000  0.0000  0.0000  0.0000  0.0000 </r>
        <r>  0.0010  0.0008  0.0231  0.0297  0.0000  0.0000  0.0000  0.0000  0.0000 </r>
        <r>  0.0029  0.0019  0.0574  0.0098  0.0000  0.0000  0.0000  0.0000  0.0000 </r>
        <r>  0.0011  0.0007  0.0209  0.0269  0.0000  0.0000  0.0000  0.0000  0.0000 </r>
       </set>
       <set comment="band 40">
        <r>  0.0002  0.0001  0.0050  0.0241  0.0000  0.0000  0.0000  0.0000  0.0000 </r>
        <r>  0.0023  0.0014  0.0514  0.0024  0.0000  0.0000  0.0000  0.0000  0.0000 </r>
        <r>  0.0002  0.0002  0.0055  0.0248  0.0000  0.0000  0.0000  0.0000  0.0000 </r>
        <r>  0.0023  0.0015  0.0557  0.0025  0.0000  0.0000  0.0000  0.0000  0.0000 </r>
        <r>  0.0006  0.0003  0.0180  0.0033  0.0000  0.0000  0.0000  0.0000  0.0000 </r>
        <r>  0.0002  0.0000  0.0069  0.0077  0.0000  0.0000  0.0000  0.0000  0.0000 </r>
        <r>  0.0007  0.0002  0.0190  0.0024  0.0000  0.0000  0.0000  0.0000  0.0000 </r>
        <r>  0.0002  0.0001  0.0060  0.0086  0.0000  0.0000  0.0000  0.0000  0.0000 </r>
        <r>  0.0014  0.0009  0.0337  0.0162  0.0000  0.0000  0.0000  0.0000  0.0000 </r>
        <r>  0.0016  0.0010  0.0360  0.0151  0.0000  0.0000  0.0000  0.0000  0.0000 </r>
        <r>  0.0014  0.0009  0.0311  0.0155  0.0000  0.0000  0.0000  0.0000  0.0000 </r>
        <r>  0.0015  0.0010  0.0332  0.0145  0.0000  0.0000  0.0000  0.0000  0.0000 </r>
       </set>
      </set>
     </set>
    </set>
   </array>
  </projected>
 </calculation>
 <structure name="finalpos" >
  <crystal>
   <varray name="basis" >
    <v>       3.34288600       0.00000000       0.00000000 </v>
    <v>       0.00000000      32.60240900       0.00000000 </v>
    <v>       0.00000000       0.00000000       4.37483100 </v>
   </varray>
   <i name="volume">    476.79592902 </i>
   <varray name="rec_basis" >
    <v>       0.29914272       0.00000000       0.00000000 </v>
    <v>       0.00000000       0.03067258       0.00000000 </v>
    <v>       0.00000000       0.00000000       0.22858026 </v>
   </varray>
  </crystal>
  <varray name="positions" >
   <v>       0.00000000       0.30672600       0.91892400 </v>
   <v>       0.50000000       0.30672600       0.58107600 </v>
   <v>       0.00000000       0.37246700       0.08107600 </v>
   <v>       0.50000000       0.37246700       0.41892400 </v>
   <v>       0.50000000       0.46712900       0.41892400 </v>
   <v>       0.00000000       0.46712900       0.08107600 </v>
   <v>       0.50000000       0.53287100       0.58107600 </v>
   <v>       0.00000000       0.53287100       0.91892400 </v>
   <v>       0.00000000       0.62753300       0.91892400 </v>
   <v>       0.50000000       0.62753300       0.58107600 </v>
   <v>       0.00000000       0.69327400       0.08107600 </v>
   <v>       0.50000000       0.69327400       0.41892400 </v>
  </varray>
 </structure>
</modeling>
