<?xml version="1.0" encoding="ISO-8859-1"?>
<modeling>
 <generator>
  <i name="program" type="string">vasp </i>
  <i name="version" type="string">5.4.4.18Apr17-6-g9f103f2a35  </i>
  <i name="subversion" type="string">(build Jun 20 2017 18:00:50) complex            parallel </i>
  <i name="platform" type="string">LinuxIFC </i>
  <i name="date" type="string">2018 03 16 </i>
  <i name="time" type="string">16:01:55 </i>
 </generator>
 <incar>
  <i type="string" name="SYSTEM"> Generic Input</i>
  <i type="int" name="ISTART">     1</i>
  <i type="string" name="PREC">normal    ! precision level</i>
  <i type="int" name="IALGO">    53</i>
  <i type="string" name="ALGO"> Normal    ! SCF minimisation algorithm</i>
  <i type="int" name="INIWAV">     1</i>
  <i type="int" name="NELM">   200</i>
  <i type="int" name="NELMIN">     2</i>
  <i type="int" name="IBRION">     2</i>
  <i name="EDIFF">      0.00001000</i>
  <i name="EDIFFG">     -0.02000000</i>
  <i type="int" name="NSW">     0</i>
  <i type="int" name="ISIF">     3</i>
  <i type="int" name="IWAVPR">    11</i>
  <i type="int" name="NBLOCK">     1</i>
  <i type="int" name="KBLOCK">    40</i>
  <i name="ENCUT">    500.00000000</i>
  <i type="int" name="NEDOS">  2000</i>
  <i type="int" name="ISMEAR">     0</i>
  <i name="SIGMA">      0.01000000</i>
  <i type="int" name="NWRITE">     2</i>
  <i type="logical" name="LVHAR"> T  </i>
  <i type="int" name="LORBIT">    11</i>
  <i type="logical" name="LASPH"> T  </i>
  <i type="int" name="ICORELEVEL">     1</i>
  <v type="int" name="KPOINT_BSE">    -1     0     0     0</v>
  <i type="int" name="NELM">   200</i>
  <i type="string" name="GGA"> PE        ! PBEsol exchange-correlation</i>
  <i type="logical" name="LASPH"> T  </i>
 </incar>
 <structure name="primitive_cell" >
  <crystal>
   <varray name="basis" >
    <v>       3.34288600       0.00000000       0.00000000 </v>
    <v>       0.00000000      32.60240900       0.00000000 </v>
    <v>       0.00000000       0.00000000       4.37483100 </v>
   </varray>
   <i name="volume">    476.79592902 </i>
   <varray name="rec_basis" >
    <v>       0.29914272       0.00000000       0.00000000 </v>
    <v>       0.00000000       0.03067258       0.00000000 </v>
    <v>       0.00000000       0.00000000       0.22858026 </v>
   </varray>
  </crystal>
  <varray name="positions" >
   <v>       0.00000000       0.30672600      -0.08107600 </v>
   <v>      -0.50000000       0.30672600      -0.41892400 </v>
   <v>       0.00000000       0.37246700       0.08107600 </v>
   <v>      -0.50000000       0.37246700       0.41892400 </v>
   <v>       0.00000000       0.46712900      -0.41892400 </v>
   <v>      -0.50000000       0.46712900      -0.08107600 </v>
   <v>      -0.50000000      -0.46712900       0.08107600 </v>
   <v>       0.00000000      -0.46712900       0.41892400 </v>
   <v>       0.00000000      -0.37246700      -0.08107600 </v>
   <v>      -0.50000000      -0.37246700      -0.41892400 </v>
   <v>       0.00000000      -0.30672600       0.08107600 </v>
   <v>      -0.50000000      -0.30672600       0.41892400 </v>
  </varray>
 </structure>
 <varray name="primitive_index" >
  <v type="int" >        1 </v>
  <v type="int" >        2 </v>
  <v type="int" >        3 </v>
  <v type="int" >        4 </v>
  <v type="int" >        6 </v>
  <v type="int" >        5 </v>
  <v type="int" >        7 </v>
  <v type="int" >        8 </v>
  <v type="int" >        9 </v>
  <v type="int" >       10 </v>
  <v type="int" >       11 </v>
  <v type="int" >       12 </v>
 </varray>
 <kpoints>
  <generation param="Gamma">
   <v type="int" name="divisions">       6        1        4 </v>
   <v name="usershift">      0.00000000       0.00000000       0.00000000 </v>
   <v name="genvec1">      0.16666667       0.00000000       0.00000000 </v>
   <v name="genvec2">      0.00000000       1.00000000       0.00000000 </v>
   <v name="genvec3">      0.00000000       0.00000000       0.25000000 </v>
   <v name="shift">      0.00000000       0.00000000       0.00000000 </v>
  </generation>
  <varray name="kpointlist" >
   <v>       0.00000000       0.00000000       0.00000000 </v>
   <v>       0.16666667       0.00000000       0.00000000 </v>
   <v>       0.33333333       0.00000000       0.00000000 </v>
   <v>       0.50000000       0.00000000       0.00000000 </v>
   <v>       0.00000000       0.00000000       0.25000000 </v>
   <v>       0.16666667       0.00000000       0.25000000 </v>
   <v>       0.33333333       0.00000000       0.25000000 </v>
   <v>       0.50000000       0.00000000       0.25000000 </v>
   <v>       0.00000000       0.00000000       0.50000000 </v>
   <v>       0.16666667       0.00000000       0.50000000 </v>
   <v>       0.33333333       0.00000000       0.50000000 </v>
   <v>       0.50000000       0.00000000       0.50000000 </v>
  </varray>
  <varray name="weights" >
   <v>       0.04166667 </v>
   <v>       0.08333333 </v>
   <v>       0.08333333 </v>
   <v>       0.04166667 </v>
   <v>       0.08333333 </v>
   <v>       0.16666667 </v>
   <v>       0.16666667 </v>
   <v>       0.08333333 </v>
   <v>       0.04166667 </v>
   <v>       0.08333333 </v>
   <v>       0.08333333 </v>
   <v>       0.04166667 </v>
  </varray>
 </kpoints>
 <parameters>
  <separator name="general" >
   <i type="string" name="SYSTEM">Generic Input</i>
   <i type="logical" name="LCOMPAT"> F  </i>
  </separator>
  <separator name="electronic" >
   <i type="string" name="PREC">normal</i>
   <i name="ENMAX">    500.00000000</i>
   <i name="ENAUG">    342.92400000</i>
   <i name="EDIFF">      0.00001000</i>
   <i type="int" name="IALGO">    38</i>
   <i type="int" name="IWAVPR">    11</i>
   <i type="int" name="NBANDS">    40</i>
   <i name="NELECT">     60.00000000</i>
   <i type="int" name="TURBO">     0</i>
   <i type="int" name="IRESTART">     0</i>
   <i type="int" name="NREBOOT">     0</i>
   <i type="int" name="NMIN">     0</i>
   <i name="EREF">      0.00000000</i>
   <separator name="electronic smearing" >
    <i type="int" name="ISMEAR">     0</i>
    <i name="SIGMA">      0.01000000</i>
    <i name="KSPACING">      0.50000000</i>
    <i type="logical" name="KGAMMA"> T  </i>
   </separator>
   <separator name="electronic projectors" >
    <i type="logical" name="LREAL"> F  </i>
    <v name="ROPT">      0.00000000</v>
    <i type="int" name="LMAXPAW">  -100</i>
    <i type="int" name="LMAXMIX">     2</i>
    <i type="logical" name="NLSPLINE"> F  </i>
   </separator>
   <separator name="electronic startup" >
    <i type="int" name="ISTART">     0</i>
    <i type="int" name="ICHARG">     2</i>
    <i type="int" name="INIWAV">     1</i>
   </separator>
   <separator name="electronic spin" >
    <i type="int" name="ISPIN">     1</i>
    <i type="logical" name="LNONCOLLINEAR"> F  </i>
    <v name="MAGMOM">      1.00000000      1.00000000      1.00000000      1.00000000      1.00000000      1.00000000      1.00000000      1.00000000      1.00000000      1.00000000      1.00000000      1.00000000</v>
    <i name="NUPDOWN">     -1.00000000</i>
    <i type="logical" name="LSORBIT"> F  </i>
    <v name="SAXIS">      0.00000000      0.00000000      1.00000000</v>
    <i type="logical" name="LSPIRAL"> F  </i>
    <v name="QSPIRAL">      0.00000000      0.00000000      0.00000000</v>
    <i type="logical" name="LZEROZ"> F  </i>
   </separator>
   <separator name="electronic exchange-correlation" >
    <i type="logical" name="LASPH"> T  </i>
    <i type="logical" name="LMETAGGA"> F  </i>
   </separator>
   <separator name="electronic convergence" >
    <i type="int" name="NELM">   200</i>
    <i type="int" name="NELMDL">     0</i>
    <i type="int" name="NELMIN">     2</i>
    <i name="ENINI">    500.00000000</i>
    <separator name="electronic convergence detail" >
     <i type="logical" name="LDIAG"> T  </i>
     <i type="logical" name="LSUBROT"> F  </i>
     <i name="WEIMIN">      0.00000000</i>
     <i name="EBREAK">      0.00000006</i>
     <i name="DEPER">      0.30000000</i>
     <i type="int" name="NRMM">     4</i>
     <i name="TIME">      0.40000000</i>
    </separator>
   </separator>
   <separator name="electronic mixer" >
    <i name="AMIX">      0.40000000</i>
    <i name="BMIX">      1.00000000</i>
    <i name="AMIN">      0.10000000</i>
    <i name="AMIX_MAG">      1.60000000</i>
    <i name="BMIX_MAG">      1.00000000</i>
    <separator name="electronic mixer details" >
     <i type="int" name="IMIX">     4</i>
     <i type="logical" name="MIXFIRST"> F  </i>
     <i type="int" name="MAXMIX">   -45</i>
     <i name="WC">    100.00000000</i>
     <i type="int" name="INIMIX">     1</i>
     <i type="int" name="MIXPRE">     1</i>
     <i type="int" name="MREMOVE">     5</i>
    </separator>
   </separator>
   <separator name="electronic dipolcorrection" >
    <i type="logical" name="LDIPOL"> F  </i>
    <i type="logical" name="LMONO"> F  </i>
    <i type="int" name="IDIPOL">     0</i>
    <i name="EPSILON">      1.00000000</i>
    <v name="DIPOL">   -100.00000000   -100.00000000   -100.00000000</v>
    <i name="EFIELD">      0.00000000</i>
   </separator>
  </separator>
  <separator name="grids" >
   <i type="int" name="NGX">    18</i>
   <i type="int" name="NGY">   180</i>
   <i type="int" name="NGZ">    24</i>
   <i type="int" name="NGXF">    36</i>
   <i type="int" name="NGYF">   360</i>
   <i type="int" name="NGZF">    48</i>
   <i type="logical" name="ADDGRID"> F  </i>
  </separator>
  <separator name="ionic" >
   <i type="int" name="NSW">     0</i>
   <i type="int" name="IBRION">    -1</i>
   <i type="int" name="MDALGO">     0</i>
   <i type="int" name="ISIF">     3</i>
   <i name="PSTRESS">      0.00000000</i>
   <i name="EDIFFG">     -0.02000000</i>
   <i type="int" name="NFREE">     1</i>
   <i name="POTIM">      0.50000000</i>
   <i name="SMASS">     -3.00000000</i>
   <i name="SCALEE">      1.00000000</i>
  </separator>
  <separator name="ionic md" >
   <i name="TEBEG">      0.00010000</i>
   <i name="TEEND">      0.00010000</i>
   <i type="int" name="NBLOCK">     1</i>
   <i type="int" name="KBLOCK">     1</i>
   <i type="int" name="NPACO">   256</i>
   <i name="APACO">     16.00000000</i>
  </separator>
  <separator name="symmetry" >
   <i type="int" name="ISYM">     2</i>
   <i name="SYMPREC">      0.00001000</i>
  </separator>
  <separator name="dos" >
   <i type="int" name="LORBIT">    11</i>
   <v name="RWIGS">     -1.00000000</v>
   <i type="int" name="NEDOS">  2000</i>
   <i name="EMIN">     10.00000000</i>
   <i name="EMAX">    -10.00000000</i>
   <i name="EFERMI">      0.00000000</i>
  </separator>
  <separator name="writing" >
   <i type="int" name="NWRITE">     2</i>
   <i type="logical" name="LWAVE"> T  </i>
   <i type="logical" name="LDOWNSAMPLE"> F  </i>
   <i type="logical" name="LCHARG"> T  </i>
   <i type="logical" name="LPARD"> F  </i>
   <i type="logical" name="LVTOT"> F  </i>
   <i type="logical" name="LVHAR"> T  </i>
   <i type="logical" name="LELF"> F  </i>
   <i type="logical" name="LOPTICS"> F  </i>
   <v name="STM">      0.00000000      0.00000000      0.00000000      0.00000000      0.00000000      0.00000000      0.00000000</v>
  </separator>
  <separator name="performance" >
   <i type="int" name="NPAR">     4</i>
   <i type="int" name="NSIM">     4</i>
   <i type="int" name="NBLK">    -1</i>
   <i type="logical" name="LPLANE"> T  </i>
   <i type="logical" name="LSCALAPACK"> T  </i>
   <i type="logical" name="LSCAAWARE"> F  </i>
   <i type="logical" name="LSCALU"> F  </i>
   <i type="logical" name="LASYNC"> F  </i>
   <i type="logical" name="LORBITALREAL"> F  </i>
  </separator>
  <separator name="miscellaneous" >
   <i type="int" name="IDIOT">     3</i>
   <i type="int" name="ISPECIAL">     0</i>
   <i type="logical" name="LMUSIC"> F  </i>
   <v name="POMASS">     30.97400000</v>
   <v name="DARWINR">      0.00000000</v>
   <v name="DARWINV">      1.00000000</v>
   <i type="logical" name="LCORR"> T  </i>
  </separator>
  <i type="logical" name="GGA_COMPAT"> T  </i>
  <i type="logical" name="LBERRY"> F  </i>
  <i type="int" name="ICORELEVEL">     1</i>
  <i type="int" name="CLNT">     1</i>
  <i type="int" name="CLN">     1</i>
  <i type="int" name="CLL">     0</i>
  <i name="CLZ">      0.00000000</i>
  <i type="logical" name="LDAU"> F  </i>
  <i type="int" name="I_CONSTRAINED_M">     0</i>
  <separator name="electronic exchange-correlation" >
   <i type="string" name="GGA">PE</i>
   <i type="int" name="VOSKOWN">     0</i>
   <i type="logical" name="LHFCALC"> F  </i>
   <i type="string" name="PRECFOCK"></i>
   <i type="logical" name="LSYMGRAD"> F  </i>
   <i type="logical" name="LHFONE"> F  </i>
   <i type="logical" name="LRHFCALC"> F  </i>
   <i type="logical" name="LTHOMAS"> F  </i>
   <i type="logical" name="LMODELHF"> F  </i>
   <i name="ENCUT4O">     -1.00000000</i>
   <i type="int" name="EXXOEP">     0</i>
   <i type="int" name="FOURORBIT">     0</i>
   <i name="AEXX">      0.00000000</i>
   <i name="HFALPHA">      0.00000000</i>
   <i name="MCALPHA">      0.00000000</i>
   <i name="ALDAX">      1.00000000</i>
   <i name="AGGAX">      1.00000000</i>
   <i name="ALDAC">      1.00000000</i>
   <i name="AGGAC">      1.00000000</i>
   <i type="int" name="NKREDX">     1</i>
   <i type="int" name="NKREDY">     1</i>
   <i type="int" name="NKREDZ">     1</i>
   <i type="logical" name="SHIFTRED"> F  </i>
   <i type="logical" name="ODDONLY"> F  </i>
   <i type="logical" name="EVENONLY"> F  </i>
   <i type="int" name="LMAXFOCK">     0</i>
   <i type="int" name="NMAXFOCKAE">     0</i>
   <i type="logical" name="LFOCKAEDFT"> F  </i>
   <i name="HFSCREEN">      0.00000000</i>
   <i name="HFSCREENC">      0.00000000</i>
   <i type="int" name="NBANDSGWLOW">     0</i>
  </separator>
  <separator name="vdW DFT" >
   <i type="logical" name="LUSE_VDW"> F  </i>
   <i name="Zab_VDW">     -0.84910000</i>
   <i name="PARAM1">      0.12340000</i>
   <i name="PARAM2">      1.00000000</i>
   <i name="PARAM3">      0.00000000</i>
  </separator>
  <separator name="model GW" >
   <i type="int" name="MODEL_GW">     0</i>
   <i name="MODEL_EPS0">     23.83979645</i>
   <i name="MODEL_ALPHA">      1.00000000</i>
  </separator>
  <separator name="linear response parameters" >
   <i type="logical" name="LEPSILON"> F  </i>
   <i type="logical" name="LRPA"> F  </i>
   <i type="logical" name="LNABLA"> F  </i>
   <i type="logical" name="LVEL"> F  </i>
   <i type="int" name="KINTER">     0</i>
   <i name="CSHIFT">      0.10000000</i>
   <i name="OMEGAMAX">     -1.00000000</i>
   <i name="DEG_THRESHOLD">      0.00200000</i>
   <i name="RTIME">     -0.10000000</i>
   <i name="WPLASMAI">      0.00000000</i>
   <v name="DFIELD">      0.00000000      0.00000000      0.00000000</v>
   <v name="WPLASMA">      0.00000000      0.00000000      0.00000000      0.00000000      0.00000000      0.00000000      0.00000000      0.00000000      0.00000000</v>
  </separator>
  <separator name="orbital magnetization" >
   <i type="logical" name="NUCIND"> F  </i>
   <v name="MAGPOS">      0.00000000      0.00000000      0.00000000</v>
   <i type="logical" name="LNICSALL"> T  </i>
   <i type="logical" name="ORBITALMAG"> F  </i>
   <i type="logical" name="LMAGBLOCH"> F  </i>
   <i type="logical" name="LCHIMAG"> F  </i>
   <i type="logical" name="LGAUGE"> T  </i>
   <i type="int" name="MAGATOM">     0</i>
   <v name="MAGDIPOL">      0.00000000      0.00000000      0.00000000</v>
   <v name="AVECCONST">      0.00000000      0.00000000      0.00000000</v>
  </separator>
  <separator name="response functions" >
   <i type="logical" name="LADDER"> F  </i>
   <i type="logical" name="LRPAFORCE"> F  </i>
   <i type="logical" name="LFXC"> F  </i>
   <i type="logical" name="LHARTREE"> T  </i>
   <i type="int" name="IBSE">     0</i>
   <v type="int" name="KPOINT">    -1     0     0     0</v>
   <i type="logical" name="LTCTE"> F  </i>
   <i type="logical" name="LTETE"> F  </i>
   <i type="logical" name="LTRIPLET"> F  </i>
   <i type="logical" name="LFXCEPS"> F  </i>
   <i type="logical" name="LFXHEG"> F  </i>
   <i type="int" name="NATURALO">     2</i>
   <i type="logical" name="L2ORDER"> F  </i>
   <i type="logical" name="LMP2LT"> F  </i>
   <i type="logical" name="LUSEW"> F  </i>
   <i name="ENCUTGW">     -2.00000000</i>
   <i name="ENCUTGWSOFT">     -2.00000000</i>
   <i name="ENCUTLF">     -1.00000000</i>
   <i type="int" name="LMAXMP2">    -1</i>
   <i name="SCISSOR">      0.00000000</i>
   <i type="int" name="NOMEGA">     0</i>
   <i type="int" name="NOMEGAR">     0</i>
   <i type="int" name="NBANDSGW">    -1</i>
   <i type="int" name="NBANDSO">    -1</i>
   <i type="int" name="NBANDSV">    -1</i>
   <i type="int" name="NELM">   200</i>
   <i type="int" name="NELMHF">     1</i>
   <i type="int" name="DIM">     3</i>
   <i type="int" name="ANTIRES">     0</i>
   <i name="OMEGAMAX">    -30.00000000</i>
   <i name="OMEGAMIN">    -30.00000000</i>
   <i name="OMEGATL">   -200.00000000</i>
   <i type="int" name="OMEGAGRID">   140</i>
   <i name="CSHIFT">     -0.10000000</i>
   <i type="logical" name="SELFENERGY"> F  </i>
   <i type="logical" name="LSPECTRAL"> F  </i>
   <i type="logical" name="LSPECTRALGW"> F  </i>
   <i type="logical" name="LSINGLES"> F  </i>
   <i type="logical" name="LFERMIGW"> F  </i>
   <i type="logical" name="ODDONLYGW"> F  </i>
   <i type="logical" name="EVENONLYGW"> F  </i>
   <i type="int" name="NKREDLFX">     1</i>
   <i type="int" name="NKREDLFY">     1</i>
   <i type="int" name="NKREDLFZ">     1</i>
   <i type="int" name="MAXMEM">  2800</i>
   <i type="int" name="TELESCOPE">     0</i>
   <i type="int" name="TAUPAR">     1</i>
   <i type="int" name="OMEGAPAR">    -1</i>
   <i name="LAMBDA">      1.00000000</i>
  </separator>
  <separator name="External order field" >
   <i name="OFIELD_KAPPA">      0.00000000</i>
   <v name="OFIELD_K">      0.00000000      0.00000000      0.00000000</v>
   <i name="OFIELD_Q6_NEAR">      0.00000000</i>
   <i name="OFIELD_Q6_FAR">      0.00000000</i>
   <i name="OFIELD_A">      0.00000000</i>
  </separator>
 </parameters>
 <atominfo>
  <atoms>      12 </atoms>
  <types>       1 </types>
  <array name="atoms" >
   <dimension dim="1">ion</dimension>
   <field type="string">element</field>
   <field type="int">atomtype</field>
   <set>
    <rc><c>P </c><c>   1</c></rc>
    <rc><c>P </c><c>   1</c></rc>
    <rc><c>P </c><c>   1</c></rc>
    <rc><c>P </c><c>   1</c></rc>
    <rc><c>P </c><c>   1</c></rc>
    <rc><c>P </c><c>   1</c></rc>
    <rc><c>P </c><c>   1</c></rc>
    <rc><c>P </c><c>   1</c></rc>
    <rc><c>P </c><c>   1</c></rc>
    <rc><c>P </c><c>   1</c></rc>
    <rc><c>P </c><c>   1</c></rc>
    <rc><c>P </c><c>   1</c></rc>
   </set>
  </array>
  <array name="atomtypes" >
   <dimension dim="1">type</dimension>
   <field type="int">atomspertype</field>
   <field type="string">element</field>
   <field>mass</field>
   <field>valence</field>
   <field type="string">pseudopotential</field>
   <set>
    <rc><c>  12</c><c>P </c><c>     30.97400000</c><c>      5.00000000</c><c>  PAW_PBE P 06Sep2000                   </c></rc>
   </set>
  </array>
 </atominfo>
 <structure name="initialpos" >
  <crystal>
   <varray name="basis" >
    <v>       3.34288600       0.00000000       0.00000000 </v>
    <v>       0.00000000      32.60240900       0.00000000 </v>
    <v>       0.00000000       0.00000000       4.37483100 </v>
   </varray>
   <i name="volume">    476.79592902 </i>
   <varray name="rec_basis" >
    <v>       0.29914272       0.00000000       0.00000000 </v>
    <v>       0.00000000       0.03067258       0.00000000 </v>
    <v>       0.00000000       0.00000000       0.22858026 </v>
   </varray>
  </crystal>
  <varray name="positions" >
   <v>       0.00000000       0.30672600       0.91892400 </v>
   <v>       0.50000000       0.30672600       0.58107600 </v>
   <v>       0.00000000       0.37246700       0.08107600 </v>
   <v>       0.50000000       0.37246700       0.41892400 </v>
   <v>       0.50000000       0.46712900       0.91892400 </v>
   <v>       0.00000000       0.46712900       0.58107600 </v>
   <v>       0.50000000       0.53287100       0.08107600 </v>
   <v>       0.00000000       0.53287100       0.41892400 </v>
   <v>       0.00000000       0.62753300       0.91892400 </v>
   <v>       0.50000000       0.62753300       0.58107600 </v>
   <v>       0.00000000       0.69327400       0.08107600 </v>
   <v>       0.50000000       0.69327400       0.41892400 </v>
  </varray>
 </structure>
 <calculation>
  <scstep>
   <time name="dav">    0.61    0.61</time>
   <time name="total">    0.71    0.72</time>
   <energy>
    <i name="alphaZ">     30.28014394 </i>
    <i name="ewald">  14973.24208224 </i>
    <i name="hartreedc"> -16928.93300519 </i>
    <i name="XCdc">     40.33409660 </i>
    <i name="pawpsdc">   1677.12035881 </i>
    <i name="pawaedc">  -1579.18296132 </i>
    <i name="eentropy">     -0.00000017 </i>
    <i name="bandstr">     52.20042588 </i>
    <i name="atom">   2112.50091676 </i>
    <i name="e_fr_energy">    377.56205755 </i>
    <i name="e_wo_entrp">    377.56205773 </i>
    <i name="e_0_energy">    377.56205764 </i>
   </energy>
  </scstep>
  <scstep>
   <time name="dav">    0.78    0.78</time>
   <time name="total">    0.78    0.78</time>
   <energy>
    <i name="e_fr_energy">    -22.25467632 </i>
    <i name="e_wo_entrp">    -22.25420616 </i>
    <i name="e_0_energy">    -22.25444124 </i>
   </energy>
  </scstep>
  <scstep>
   <time name="dav">    0.68    0.68</time>
   <time name="total">    0.68    0.68</time>
   <energy>
    <i name="e_fr_energy">    -63.27707601 </i>
    <i name="e_wo_entrp">    -63.27707601 </i>
    <i name="e_0_energy">    -63.27707601 </i>
   </energy>
  </scstep>
  <scstep>
   <time name="dav">    0.89    0.91</time>
   <time name="total">    0.89    0.91</time>
   <energy>
    <i name="e_fr_energy">    -64.76913364 </i>
    <i name="e_wo_entrp">    -64.76913364 </i>
    <i name="e_0_energy">    -64.76913364 </i>
   </energy>
  </scstep>
  <scstep>
   <time name="dav">    0.83    0.83</time>
   <time name="total">    0.87    0.87</time>
   <energy>
    <i name="e_fr_energy">    -64.81237683 </i>
    <i name="e_wo_entrp">    -64.81237683 </i>
    <i name="e_0_energy">    -64.81237683 </i>
   </energy>
  </scstep>
  <scstep>
   <time name="dav">    0.75    0.75</time>
   <time name="total">    0.87    0.88</time>
   <energy>
    <i name="e_fr_energy">    -64.48765387 </i>
    <i name="e_wo_entrp">    -64.48765387 </i>
    <i name="e_0_energy">    -64.48765387 </i>
   </energy>
  </scstep>
  <scstep>
   <time name="dav">    0.70    0.70</time>
   <time name="total">    0.82    0.82</time>
   <energy>
    <i name="e_fr_energy">    -64.33877432 </i>
    <i name="e_wo_entrp">    -64.33877407 </i>
    <i name="e_0_energy">    -64.33877420 </i>
   </energy>
  </scstep>
  <scstep>
   <time name="dav">    0.74    0.74</time>
   <time name="total">    0.86    0.87</time>
   <energy>
    <i name="e_fr_energy">    -64.33850194 </i>
    <i name="e_wo_entrp">    -64.33850187 </i>
    <i name="e_0_energy">    -64.33850191 </i>
   </energy>
  </scstep>
  <scstep>
   <time name="dav">    0.80    0.80</time>
   <time name="total">    0.92    0.92</time>
   <energy>
    <i name="e_fr_energy">    -64.33846455 </i>
    <i name="e_wo_entrp">    -64.33846448 </i>
    <i name="e_0_energy">    -64.33846452 </i>
   </energy>
  </scstep>
  <scstep>
   <time name="dav">    0.72    0.72</time>
   <time name="total">    0.84    0.85</time>
   <energy>
    <i name="e_fr_energy">    -64.33821101 </i>
    <i name="e_wo_entrp">    -64.33821097 </i>
    <i name="e_0_energy">    -64.33821099 </i>
   </energy>
  </scstep>
  <scstep>
   <time name="dav">    0.71    0.71</time>
   <time name="total">    0.83    0.84</time>
   <energy>
    <i name="e_fr_energy">    -64.33796234 </i>
    <i name="e_wo_entrp">    -64.33796229 </i>
    <i name="e_0_energy">    -64.33796231 </i>
   </energy>
  </scstep>
  <scstep>
   <time name="dav">    0.72    0.72</time>
   <time name="total">    0.85    0.85</time>
   <energy>
    <i name="e_fr_energy">    -64.33806291 </i>
    <i name="e_wo_entrp">    -64.33806286 </i>
    <i name="e_0_energy">    -64.33806288 </i>
   </energy>
  </scstep>
  <scstep>
   <time name="dav">    0.67    0.67</time>
   <time name="total">    0.79    0.79</time>
   <energy>
    <i name="e_fr_energy">    -64.33829144 </i>
    <i name="e_wo_entrp">    -64.33829138 </i>
    <i name="e_0_energy">    -64.33829141 </i>
   </energy>
  </scstep>
  <scstep>
   <time name="dav">    0.61    0.62</time>
   <time name="total">    0.74    0.74</time>
   <energy>
    <i name="e_fr_energy">    -64.33842299 </i>
    <i name="e_wo_entrp">    -64.33842293 </i>
    <i name="e_0_energy">    -64.33842296 </i>
   </energy>
  </scstep>
  <scstep>
   <time name="dav">    0.52    0.52</time>
   <time name="total">    0.65    0.65</time>
   <energy>
    <i name="e_fr_energy">    -64.33844494 </i>
    <i name="e_wo_entrp">    -64.33844487 </i>
    <i name="e_0_energy">    -64.33844490 </i>
   </energy>
  </scstep>
  <scstep>
   <time name="dav">    0.60    0.60</time>
   <time name="total">    0.72    0.73</time>
   <energy>
    <i name="e_fr_energy">    -64.33868007 </i>
    <i name="e_wo_entrp">    -64.33868001 </i>
    <i name="e_0_energy">    -64.33868004 </i>
   </energy>
  </scstep>
  <scstep>
   <time name="dav">    0.55    0.55</time>
   <time name="total">    0.67    0.67</time>
   <energy>
    <i name="e_fr_energy">    -64.33870164 </i>
    <i name="e_wo_entrp">    -64.33870157 </i>
    <i name="e_0_energy">    -64.33870161 </i>
   </energy>
  </scstep>
  <scstep>
   <time name="dav">    0.53    0.53</time>
   <time name="total">    0.70    0.70</time>
   <energy>
    <i name="alphaZ">     30.28014394 </i>
    <i name="ewald">  14973.24208224 </i>
    <i name="hartreedc"> -16968.15957399 </i>
    <i name="XCdc">     43.14175395 </i>
    <i name="pawpsdc">   6295.32909570 </i>
    <i name="pawaedc">  -6198.31079988 </i>
    <i name="eentropy">     -0.00000007 </i>
    <i name="bandstr">   -352.36232034 </i>
    <i name="atom">   2112.50091676 </i>
    <i name="e_fr_energy">    -64.33870168 </i>
    <i name="e_wo_entrp">    -64.33870161 </i>
    <i name="e_0_energy">    -64.33870164 </i>
   </energy>
  </scstep>
  <structure>
   <crystal>
    <varray name="basis" >
     <v>       3.34288600       0.00000000       0.00000000 </v>
     <v>       0.00000000      32.60240900       0.00000000 </v>
     <v>       0.00000000       0.00000000       4.37483100 </v>
    </varray>
    <i name="volume">    476.79592902 </i>
    <varray name="rec_basis" >
     <v>       0.29914272       0.00000000       0.00000000 </v>
     <v>       0.00000000       0.03067258       0.00000000 </v>
     <v>       0.00000000       0.00000000       0.22858026 </v>
    </varray>
   </crystal>
   <varray name="positions" >
    <v>       0.00000000       0.30672600       0.91892400 </v>
    <v>       0.50000000       0.30672600       0.58107600 </v>
    <v>       0.00000000       0.37246700       0.08107600 </v>
    <v>       0.50000000       0.37246700       0.41892400 </v>
    <v>       0.50000000       0.46712900       0.91892400 </v>
    <v>       0.00000000       0.46712900       0.58107600 </v>
    <v>       0.50000000       0.53287100       0.08107600 </v>
    <v>       0.00000000       0.53287100       0.41892400 </v>
    <v>       0.00000000       0.62753300       0.91892400 </v>
    <v>       0.50000000       0.62753300       0.58107600 </v>
    <v>       0.00000000       0.69327400       0.08107600 </v>
    <v>       0.50000000       0.69327400       0.41892400 </v>
   </varray>
  </structure>
  <varray name="forces" >
   <v>       0.00000000       0.08105378      -0.03758943 </v>
   <v>       0.00000000       0.08105378       0.03758943 </v>
   <v>       0.00000000      -0.07695830      -0.02231630 </v>
   <v>       0.00000000      -0.07695830       0.02231630 </v>
   <v>       0.00000000       0.03668759       0.00346168 </v>
   <v>       0.00000000       0.03668759      -0.00346168 </v>
   <v>       0.00000000      -0.03668759      -0.00346168 </v>
   <v>       0.00000000      -0.03668759       0.00346168 </v>
   <v>       0.00000000       0.07695830       0.02231630 </v>
   <v>       0.00000000       0.07695830      -0.02231630 </v>
   <v>       0.00000000      -0.08105378       0.03758943 </v>
   <v>      -0.00000000      -0.08105378      -0.03758943 </v>
  </varray>
  <varray name="stress" >
   <v>       0.90671510       0.00000000       0.00000000 </v>
   <v>       0.00000000      -3.27126398       0.00000000 </v>
   <v>       0.00000000       0.00000000       4.08328115 </v>
  </varray>
  <energy>
   <i name="e_fr_energy">    -66.51264120 </i>
   <i name="e_wo_entrp">    -66.51264117 </i>
   <i name="e_0_energy">     -0.00000007 </i>
  </energy>
  <time name="totalsc">   16.13   16.22</time>
  <eigenvalues>
   <array>
    <dimension dim="1">band</dimension>
    <dimension dim="2">kpoint</dimension>
    <dimension dim="3">spin</dimension>
    <field>eigene</field>
    <field>occ</field>
    <set>
     <set comment="spin 1">
      <set comment="kpoint 1">
       <r>  -14.8548    1.0000 </r>
       <r>  -14.7346    1.0000 </r>
       <r>  -14.6659    1.0000 </r>
       <r>  -12.3738    1.0000 </r>
       <r>  -12.1281    1.0000 </r>
       <r>  -11.9482    1.0000 </r>
       <r>   -8.6066    1.0000 </r>
       <r>   -8.5226    1.0000 </r>
       <r>   -8.4924    1.0000 </r>
       <r>   -5.9246    1.0000 </r>
       <r>   -5.5458    1.0000 </r>
       <r>   -5.1275    1.0000 </r>
       <r>   -4.5055    1.0000 </r>
       <r>   -4.5054    1.0000 </r>
       <r>   -4.1879    1.0000 </r>
       <r>   -4.1435    1.0000 </r>
       <r>   -3.9961    1.0000 </r>
       <r>   -3.9220    1.0000 </r>
       <r>   -3.3941    1.0000 </r>
       <r>   -3.2934    1.0000 </r>
       <r>   -3.2435    1.0000 </r>
       <r>   -1.8803    1.0000 </r>
       <r>   -1.7368    1.0000 </r>
       <r>   -1.6252    1.0000 </r>
       <r>   -1.5898    1.0000 </r>
       <r>   -1.5047    1.0000 </r>
       <r>   -1.1084    1.0000 </r>
       <r>   -0.2500    1.0000 </r>
       <r>    0.3537    1.0000 </r>
       <r>    0.9092    1.0000 </r>
       <r>    0.9687    0.0000 </r>
       <r>    1.4964    0.0000 </r>
       <r>    1.5223    0.0000 </r>
       <r>    1.6969    0.0000 </r>
       <r>    1.7045    0.0000 </r>
       <r>    1.8604    0.0000 </r>
       <r>    2.7297    0.0000 </r>
       <r>    2.9001    0.0000 </r>
       <r>    2.9711    0.0000 </r>
       <r>    3.6805    0.0000 </r>
      </set>
      <set comment="kpoint 2">
       <r>  -14.5313    1.0000 </r>
       <r>  -14.4123    1.0000 </r>
       <r>  -14.3448    1.0000 </r>
       <r>  -12.0371    1.0000 </r>
       <r>  -11.7928    1.0000 </r>
       <r>  -11.6140    1.0000 </r>
       <r>   -8.8993    1.0000 </r>
       <r>   -8.8384    1.0000 </r>
       <r>   -8.8323    1.0000 </r>
       <r>   -5.6516    1.0000 </r>
       <r>   -5.2805    1.0000 </r>
       <r>   -4.9727    1.0000 </r>
       <r>   -4.8918    1.0000 </r>
       <r>   -4.8852    1.0000 </r>
       <r>   -4.8538    1.0000 </r>
       <r>   -4.4288    1.0000 </r>
       <r>   -4.3556    1.0000 </r>
       <r>   -4.3448    1.0000 </r>
       <r>   -4.2193    1.0000 </r>
       <r>   -3.8748    1.0000 </r>
       <r>   -3.7306    1.0000 </r>
       <r>   -2.6619    1.0000 </r>
       <r>   -2.5116    1.0000 </r>
       <r>   -2.3463    1.0000 </r>
       <r>   -1.7422    1.0000 </r>
       <r>   -1.4709    1.0000 </r>
       <r>   -0.9684    1.0000 </r>
       <r>   -0.2140    1.0000 </r>
       <r>    0.1863    1.0000 </r>
       <r>    0.4566    1.0000 </r>
       <r>    1.2520    0.0000 </r>
       <r>    1.6566    0.0000 </r>
       <r>    1.8810    0.0000 </r>
       <r>    2.3385    0.0000 </r>
       <r>    2.5505    0.0000 </r>
       <r>    2.5749    0.0000 </r>
       <r>    3.7495    0.0000 </r>
       <r>    3.8750    0.0000 </r>
       <r>    3.9796    0.0000 </r>
       <r>    4.2728    0.0000 </r>
      </set>
      <set comment="kpoint 3">
       <r>  -13.5782    1.0000 </r>
       <r>  -13.4633    1.0000 </r>
       <r>  -13.4003    1.0000 </r>
       <r>  -11.0355    1.0000 </r>
       <r>  -10.7959    1.0000 </r>
       <r>  -10.6208    1.0000 </r>
       <r>  -10.2418    1.0000 </r>
       <r>  -10.1627    1.0000 </r>
       <r>  -10.1377    1.0000 </r>
       <r>   -7.2215    1.0000 </r>
       <r>   -7.0254    1.0000 </r>
       <r>   -6.8872    1.0000 </r>
       <r>   -4.9309    1.0000 </r>
       <r>   -4.9060    1.0000 </r>
       <r>   -4.8498    1.0000 </r>
       <r>   -4.8407    1.0000 </r>
       <r>   -4.6055    1.0000 </r>
       <r>   -4.3161    1.0000 </r>
       <r>   -3.4264    1.0000 </r>
       <r>   -3.1571    1.0000 </r>
       <r>   -3.0341    1.0000 </r>
       <r>   -2.6860    1.0000 </r>
       <r>   -2.3965    1.0000 </r>
       <r>   -2.1621    1.0000 </r>
       <r>   -1.7911    1.0000 </r>
       <r>   -1.5220    1.0000 </r>
       <r>   -1.1904    1.0000 </r>
       <r>   -0.8935    1.0000 </r>
       <r>   -0.7537    1.0000 </r>
       <r>   -0.6903    1.0000 </r>
       <r>    1.1107    0.0000 </r>
       <r>    1.1720    0.0000 </r>
       <r>    1.4338    0.0000 </r>
       <r>    2.0730    0.0000 </r>
       <r>    2.2847    0.0000 </r>
       <r>    2.6022    0.0000 </r>
       <r>    2.6455    0.0000 </r>
       <r>    2.6614    0.0000 </r>
       <r>    2.6688    0.0000 </r>
       <r>    2.9500    0.0000 </r>
      </set>
      <set comment="kpoint 4">
       <r>  -12.0676    1.0000 </r>
       <r>  -12.0676    1.0000 </r>
       <r>  -11.9628    1.0000 </r>
       <r>  -11.9628    1.0000 </r>
       <r>  -11.9103    1.0000 </r>
       <r>  -11.9103    1.0000 </r>
       <r>   -9.4001    1.0000 </r>
       <r>   -9.4001    1.0000 </r>
       <r>   -9.1715    1.0000 </r>
       <r>   -9.1715    1.0000 </r>
       <r>   -9.0053    1.0000 </r>
       <r>   -9.0053    1.0000 </r>
       <r>   -4.4698    1.0000 </r>
       <r>   -4.4698    1.0000 </r>
       <r>   -4.3356    1.0000 </r>
       <r>   -4.3356    1.0000 </r>
       <r>   -4.2899    1.0000 </r>
       <r>   -4.2899    1.0000 </r>
       <r>   -2.4676    1.0000 </r>
       <r>   -2.4676    1.0000 </r>
       <r>   -2.3941    1.0000 </r>
       <r>   -2.3941    1.0000 </r>
       <r>   -2.3937    1.0000 </r>
       <r>   -2.3937    1.0000 </r>
       <r>   -2.0109    1.0000 </r>
       <r>   -2.0109    1.0000 </r>
       <r>   -1.7403    1.0000 </r>
       <r>   -1.7403    1.0000 </r>
       <r>   -1.4881    1.0000 </r>
       <r>   -1.4881    1.0000 </r>
       <r>    1.6187    0.0000 </r>
       <r>    1.6187    0.0000 </r>
       <r>    1.6313    0.0000 </r>
       <r>    1.6313    0.0000 </r>
       <r>    1.7132    0.0000 </r>
       <r>    1.7132    0.0000 </r>
       <r>    2.1547    0.0000 </r>
       <r>    2.1548    0.0000 </r>
       <r>    2.1911    0.0000 </r>
       <r>    2.1918    0.0000 </r>
      </set>
      <set comment="kpoint 5">
       <r>  -14.5034    1.0000 </r>
       <r>  -14.3904    1.0000 </r>
       <r>  -14.3294    1.0000 </r>
       <r>  -12.5962    1.0000 </r>
       <r>  -12.4624    1.0000 </r>
       <r>  -12.4018    1.0000 </r>
       <r>   -9.0060    1.0000 </r>
       <r>   -8.8493    1.0000 </r>
       <r>   -8.7267    1.0000 </r>
       <r>   -6.9122    1.0000 </r>
       <r>   -6.6394    1.0000 </r>
       <r>   -6.4715    1.0000 </r>
       <r>   -4.5491    1.0000 </r>
       <r>   -4.0381    1.0000 </r>
       <r>   -3.3762    1.0000 </r>
       <r>   -3.1168    1.0000 </r>
       <r>   -3.0638    1.0000 </r>
       <r>   -3.0246    1.0000 </r>
       <r>   -2.9837    1.0000 </r>
       <r>   -2.7188    1.0000 </r>
       <r>   -2.7180    1.0000 </r>
       <r>   -1.8652    1.0000 </r>
       <r>   -1.7647    1.0000 </r>
       <r>   -1.7338    1.0000 </r>
       <r>   -1.7261    1.0000 </r>
       <r>   -1.0751    1.0000 </r>
       <r>   -0.4263    1.0000 </r>
       <r>   -0.2675    1.0000 </r>
       <r>   -0.2050    1.0000 </r>
       <r>   -0.0275    1.0000 </r>
       <r>    1.6791    0.0000 </r>
       <r>    2.0056    0.0000 </r>
       <r>    2.1137    0.0000 </r>
       <r>    2.2069    0.0000 </r>
       <r>    2.2568    0.0000 </r>
       <r>    2.2600    0.0000 </r>
       <r>    2.3678    0.0000 </r>
       <r>    2.7083    0.0000 </r>
       <r>    3.2521    0.0000 </r>
       <r>    3.3074    0.0000 </r>
      </set>
      <set comment="kpoint 6">
       <r>  -14.1846    1.0000 </r>
       <r>  -14.0728    1.0000 </r>
       <r>  -14.0131    1.0000 </r>
       <r>  -12.2803    1.0000 </r>
       <r>  -12.1509    1.0000 </r>
       <r>  -12.0944    1.0000 </r>
       <r>   -9.0397    1.0000 </r>
       <r>   -8.8875    1.0000 </r>
       <r>   -8.7742    1.0000 </r>
       <r>   -6.7963    1.0000 </r>
       <r>   -6.5667    1.0000 </r>
       <r>   -6.4200    1.0000 </r>
       <r>   -4.9862    1.0000 </r>
       <r>   -4.8455    1.0000 </r>
       <r>   -4.7166    1.0000 </r>
       <r>   -4.5119    1.0000 </r>
       <r>   -4.0379    1.0000 </r>
       <r>   -3.7238    1.0000 </r>
       <r>   -3.3133    1.0000 </r>
       <r>   -3.1979    1.0000 </r>
       <r>   -2.9144    1.0000 </r>
       <r>   -2.3360    1.0000 </r>
       <r>   -2.1652    1.0000 </r>
       <r>   -2.1438    1.0000 </r>
       <r>   -1.4992    1.0000 </r>
       <r>   -0.9518    1.0000 </r>
       <r>   -0.8611    1.0000 </r>
       <r>   -0.7311    1.0000 </r>
       <r>   -0.4607    1.0000 </r>
       <r>   -0.4124    1.0000 </r>
       <r>    2.0275    0.0000 </r>
       <r>    2.3124    0.0000 </r>
       <r>    2.5877    0.0000 </r>
       <r>    2.8629    0.0000 </r>
       <r>    3.0134    0.0000 </r>
       <r>    3.0653    0.0000 </r>
       <r>    3.3732    0.0000 </r>
       <r>    3.4977    0.0000 </r>
       <r>    3.6078    0.0000 </r>
       <r>    4.3201    0.0000 </r>
      </set>
      <set comment="kpoint 7">
       <r>  -13.2535    1.0000 </r>
       <r>  -13.1464    1.0000 </r>
       <r>  -13.0916    1.0000 </r>
       <r>  -11.4369    1.0000 </r>
       <r>  -11.3346    1.0000 </r>
       <r>  -11.3016    1.0000 </r>
       <r>   -9.7503    1.0000 </r>
       <r>   -9.5902    1.0000 </r>
       <r>   -9.4806    1.0000 </r>
       <r>   -7.5241    1.0000 </r>
       <r>   -7.4371    1.0000 </r>
       <r>   -7.4165    1.0000 </r>
       <r>   -5.8330    1.0000 </r>
       <r>   -5.6653    1.0000 </r>
       <r>   -5.5320    1.0000 </r>
       <r>   -4.7975    1.0000 </r>
       <r>   -4.7533    1.0000 </r>
       <r>   -4.6782    1.0000 </r>
       <r>   -3.3918    1.0000 </r>
       <r>   -3.3111    1.0000 </r>
       <r>   -3.1777    1.0000 </r>
       <r>   -2.5126    1.0000 </r>
       <r>   -2.3685    1.0000 </r>
       <r>   -2.3639    1.0000 </r>
       <r>   -2.2361    1.0000 </r>
       <r>   -1.8480    1.0000 </r>
       <r>   -1.3305    1.0000 </r>
       <r>   -0.9601    1.0000 </r>
       <r>   -0.6601    1.0000 </r>
       <r>   -0.6242    1.0000 </r>
       <r>    1.7033    0.0000 </r>
       <r>    1.8315    0.0000 </r>
       <r>    2.0264    0.0000 </r>
       <r>    2.5145    0.0000 </r>
       <r>    2.7049    0.0000 </r>
       <r>    2.9611    0.0000 </r>
       <r>    3.1522    0.0000 </r>
       <r>    3.3301    0.0000 </r>
       <r>    3.3719    0.0000 </r>
       <r>    3.8738    0.0000 </r>
      </set>
      <set comment="kpoint 8">
       <r>  -11.8546    1.0000 </r>
       <r>  -11.8546    1.0000 </r>
       <r>  -11.7628    1.0000 </r>
       <r>  -11.7628    1.0000 </r>
       <r>  -11.7245    1.0000 </r>
       <r>  -11.7245    1.0000 </r>
       <r>   -9.4310    1.0000 </r>
       <r>   -9.4310    1.0000 </r>
       <r>   -9.2733    1.0000 </r>
       <r>   -9.2733    1.0000 </r>
       <r>   -9.1820    1.0000 </r>
       <r>   -9.1820    1.0000 </r>
       <r>   -5.0177    1.0000 </r>
       <r>   -5.0177    1.0000 </r>
       <r>   -4.8281    1.0000 </r>
       <r>   -4.8281    1.0000 </r>
       <r>   -4.6764    1.0000 </r>
       <r>   -4.6764    1.0000 </r>
       <r>   -3.6867    1.0000 </r>
       <r>   -3.6867    1.0000 </r>
       <r>   -3.4423    1.0000 </r>
       <r>   -3.4423    1.0000 </r>
       <r>   -3.3092    1.0000 </r>
       <r>   -3.3092    1.0000 </r>
       <r>   -1.5495    1.0000 </r>
       <r>   -1.5495    1.0000 </r>
       <r>   -1.2059    1.0000 </r>
       <r>   -1.2059    1.0000 </r>
       <r>   -0.9102    1.0000 </r>
       <r>   -0.9102    1.0000 </r>
       <r>    2.0051    0.0000 </r>
       <r>    2.0051    0.0000 </r>
       <r>    2.3080    0.0000 </r>
       <r>    2.3080    0.0000 </r>
       <r>    2.4548    0.0000 </r>
       <r>    2.4548    0.0000 </r>
       <r>    3.1797    0.0000 </r>
       <r>    3.1797    0.0000 </r>
       <r>    3.4036    0.0000 </r>
       <r>    3.4036    0.0000 </r>
      </set>
      <set comment="kpoint 9">
       <r>  -13.5470    1.0000 </r>
       <r>  -13.5470    1.0000 </r>
       <r>  -13.4773    1.0000 </r>
       <r>  -13.4773    1.0000 </r>
       <r>  -13.4310    1.0000 </r>
       <r>  -13.4310    1.0000 </r>
       <r>   -8.5714    1.0000 </r>
       <r>   -8.5714    1.0000 </r>
       <r>   -8.2548    1.0000 </r>
       <r>   -8.2548    1.0000 </r>
       <r>   -7.9812    1.0000 </r>
       <r>   -7.9812    1.0000 </r>
       <r>   -3.5914    1.0000 </r>
       <r>   -3.5914    1.0000 </r>
       <r>   -2.8286    1.0000 </r>
       <r>   -2.8286    1.0000 </r>
       <r>   -2.4228    1.0000 </r>
       <r>   -2.4228    1.0000 </r>
       <r>   -2.3791    1.0000 </r>
       <r>   -2.3791    1.0000 </r>
       <r>   -2.3338    1.0000 </r>
       <r>   -2.3338    1.0000 </r>
       <r>   -2.0235    1.0000 </r>
       <r>   -2.0235    1.0000 </r>
       <r>   -0.7280    1.0000 </r>
       <r>   -0.7280    1.0000 </r>
       <r>   -0.5202    1.0000 </r>
       <r>   -0.5202    1.0000 </r>
       <r>   -0.4476    1.0000 </r>
       <r>   -0.4476    1.0000 </r>
       <r>    2.1898    0.0000 </r>
       <r>    2.1898    0.0000 </r>
       <r>    2.2332    0.0000 </r>
       <r>    2.2332    0.0000 </r>
       <r>    2.2857    0.0000 </r>
       <r>    2.2857    0.0000 </r>
       <r>    3.4175    0.0000 </r>
       <r>    3.4179    0.0000 </r>
       <r>    3.5645    0.0000 </r>
       <r>    3.5953    0.0000 </r>
      </set>
      <set comment="kpoint 10">
       <r>  -13.2409    1.0000 </r>
       <r>  -13.2409    1.0000 </r>
       <r>  -13.1715    1.0000 </r>
       <r>  -13.1715    1.0000 </r>
       <r>  -13.1261    1.0000 </r>
       <r>  -13.1261    1.0000 </r>
       <r>   -8.4266    1.0000 </r>
       <r>   -8.4266    1.0000 </r>
       <r>   -8.1363    1.0000 </r>
       <r>   -8.1363    1.0000 </r>
       <r>   -7.8957    1.0000 </r>
       <r>   -7.8957    1.0000 </r>
       <r>   -4.3702    1.0000 </r>
       <r>   -4.3702    1.0000 </r>
       <r>   -4.2641    1.0000 </r>
       <r>   -4.2641    1.0000 </r>
       <r>   -4.1660    1.0000 </r>
       <r>   -4.1660    1.0000 </r>
       <r>   -3.3513    1.0000 </r>
       <r>   -3.3513    1.0000 </r>
       <r>   -2.6381    1.0000 </r>
       <r>   -2.6381    1.0000 </r>
       <r>   -1.9682    1.0000 </r>
       <r>   -1.9682    1.0000 </r>
       <r>   -0.8121    1.0000 </r>
       <r>   -0.8121    1.0000 </r>
       <r>   -0.6452    1.0000 </r>
       <r>   -0.6452    1.0000 </r>
       <r>   -0.4918    1.0000 </r>
       <r>   -0.4918    1.0000 </r>
       <r>    2.8448    0.0000 </r>
       <r>    2.8448    0.0000 </r>
       <r>    2.9830    0.0000 </r>
       <r>    2.9830    0.0000 </r>
       <r>    3.0963    0.0000 </r>
       <r>    3.0963    0.0000 </r>
       <r>    3.5134    0.0000 </r>
       <r>    3.5134    0.0000 </r>
       <r>    3.9742    0.0000 </r>
       <r>    3.9742    0.0000 </r>
      </set>
      <set comment="kpoint 11">
       <r>  -12.3830    1.0000 </r>
       <r>  -12.3830    1.0000 </r>
       <r>  -12.3157    1.0000 </r>
       <r>  -12.3157    1.0000 </r>
       <r>  -12.2756    1.0000 </r>
       <r>  -12.2756    1.0000 </r>
       <r>   -8.6637    1.0000 </r>
       <r>   -8.6637    1.0000 </r>
       <r>   -8.5142    1.0000 </r>
       <r>   -8.5142    1.0000 </r>
       <r>   -8.4283    1.0000 </r>
       <r>   -8.4283    1.0000 </r>
       <r>   -5.7961    1.0000 </r>
       <r>   -5.7961    1.0000 </r>
       <r>   -5.5449    1.0000 </r>
       <r>   -5.5449    1.0000 </r>
       <r>   -5.3202    1.0000 </r>
       <r>   -5.3202    1.0000 </r>
       <r>   -3.4355    1.0000 </r>
       <r>   -3.4355    1.0000 </r>
       <r>   -3.0690    1.0000 </r>
       <r>   -3.0690    1.0000 </r>
       <r>   -2.7859    1.0000 </r>
       <r>   -2.7859    1.0000 </r>
       <r>   -1.8733    1.0000 </r>
       <r>   -1.8733    1.0000 </r>
       <r>   -1.3277    1.0000 </r>
       <r>   -1.3277    1.0000 </r>
       <r>   -0.8287    1.0000 </r>
       <r>   -0.8287    1.0000 </r>
       <r>    2.6918    0.0000 </r>
       <r>    2.6918    0.0000 </r>
       <r>    3.2784    0.0000 </r>
       <r>    3.2784    0.0000 </r>
       <r>    3.9563    0.0000 </r>
       <r>    3.9572    0.0000 </r>
       <r>    3.9844    0.0000 </r>
       <r>    3.9861    0.0000 </r>
       <r>    4.0858    0.0000 </r>
       <r>    4.1001    0.0000 </r>
      </set>
      <set comment="kpoint 12">
       <r>  -11.5664    1.0000 </r>
       <r>  -11.5664    1.0000 </r>
       <r>  -11.5108    1.0000 </r>
       <r>  -11.5108    1.0000 </r>
       <r>  -11.5106    1.0000 </r>
       <r>  -11.5106    1.0000 </r>
       <r>   -9.5297    1.0000 </r>
       <r>   -9.5297    1.0000 </r>
       <r>   -9.4665    1.0000 </r>
       <r>   -9.4665    1.0000 </r>
       <r>   -9.4652    1.0000 </r>
       <r>   -9.4652    1.0000 </r>
       <r>   -4.9611    1.0000 </r>
       <r>   -4.9611    1.0000 </r>
       <r>   -4.9464    1.0000 </r>
       <r>   -4.9464    1.0000 </r>
       <r>   -4.6715    1.0000 </r>
       <r>   -4.6715    1.0000 </r>
       <r>   -4.6179    1.0000 </r>
       <r>   -4.6179    1.0000 </r>
       <r>   -4.3756    1.0000 </r>
       <r>   -4.3756    1.0000 </r>
       <r>   -4.3749    1.0000 </r>
       <r>   -4.3749    1.0000 </r>
       <r>   -1.2347    1.0000 </r>
       <r>   -1.2347    1.0000 </r>
       <r>   -1.1807    1.0000 </r>
       <r>   -1.1807    1.0000 </r>
       <r>   -1.0522    1.0000 </r>
       <r>   -1.0522    1.0000 </r>
       <r>    2.6255    0.0000 </r>
       <r>    2.6255    0.0000 </r>
       <r>    2.7586    0.0000 </r>
       <r>    2.7586    0.0000 </r>
       <r>    2.8971    0.0000 </r>
       <r>    2.8971    0.0000 </r>
       <r>    4.8156    0.0000 </r>
       <r>    4.8246    0.0000 </r>
       <r>    4.8659    0.0000 </r>
       <r>    4.8677    0.0000 </r>
      </set>
     </set>
    </set>
   </array>
  </eigenvalues>
  <separator name="orbital magnetization" >
   <v name="MAGDIPOLOUT">      0.00000000      0.00000000      0.00000000</v>
  </separator>
  <dos>
   <i name="efermi">      0.93894682 </i>
   <total>
    <array>
     <dimension dim="1">gridpoints</dimension>
     <dimension dim="2">spin</dimension>
     <field>energy</field>
     <field>total</field>
     <field>integrated</field>
     <set>
      <set comment="spin 1">
       <r>   -15.8410     0.0000     0.0000 </r>
       <r>   -15.8301     0.0000     0.0000 </r>
       <r>   -15.8193     0.0000     0.0000 </r>
       <r>   -15.8084     0.0000     0.0000 </r>
       <r>   -15.7975     0.0000     0.0000 </r>
       <r>   -15.7867     0.0000     0.0000 </r>
       <r>   -15.7758     0.0000     0.0000 </r>
       <r>   -15.7650     0.0000     0.0000 </r>
       <r>   -15.7541     0.0000     0.0000 </r>
       <r>   -15.7433     0.0000     0.0000 </r>
       <r>   -15.7324     0.0000     0.0000 </r>
       <r>   -15.7216     0.0000     0.0000 </r>
       <r>   -15.7107     0.0000     0.0000 </r>
       <r>   -15.6999     0.0000     0.0000 </r>
       <r>   -15.6890     0.0000     0.0000 </r>
       <r>   -15.6782     0.0000     0.0000 </r>
       <r>   -15.6673     0.0000     0.0000 </r>
       <r>   -15.6565     0.0000     0.0000 </r>
       <r>   -15.6456     0.0000     0.0000 </r>
       <r>   -15.6348     0.0000     0.0000 </r>
       <r>   -15.6239     0.0000     0.0000 </r>
       <r>   -15.6130     0.0000     0.0000 </r>
       <r>   -15.6022     0.0000     0.0000 </r>
       <r>   -15.5913     0.0000     0.0000 </r>
       <r>   -15.5805     0.0000     0.0000 </r>
       <r>   -15.5696     0.0000     0.0000 </r>
       <r>   -15.5588     0.0000     0.0000 </r>
       <r>   -15.5479     0.0000     0.0000 </r>
       <r>   -15.5371     0.0000     0.0000 </r>
       <r>   -15.5262     0.0000     0.0000 </r>
       <r>   -15.5154     0.0000     0.0000 </r>
       <r>   -15.5045     0.0000     0.0000 </r>
       <r>   -15.4937     0.0000     0.0000 </r>
       <r>   -15.4828     0.0000     0.0000 </r>
       <r>   -15.4720     0.0000     0.0000 </r>
       <r>   -15.4611     0.0000     0.0000 </r>
       <r>   -15.4503     0.0000     0.0000 </r>
       <r>   -15.4394     0.0000     0.0000 </r>
       <r>   -15.4286     0.0000     0.0000 </r>
       <r>   -15.4177     0.0000     0.0000 </r>
       <r>   -15.4068     0.0000     0.0000 </r>
       <r>   -15.3960     0.0000     0.0000 </r>
       <r>   -15.3851     0.0000     0.0000 </r>
       <r>   -15.3743     0.0000     0.0000 </r>
       <r>   -15.3634     0.0000     0.0000 </r>
       <r>   -15.3526     0.0000     0.0000 </r>
       <r>   -15.3417     0.0000     0.0000 </r>
       <r>   -15.3309     0.0000     0.0000 </r>
       <r>   -15.3200     0.0000     0.0000 </r>
       <r>   -15.3092     0.0000     0.0000 </r>
       <r>   -15.2983     0.0000     0.0000 </r>
       <r>   -15.2875     0.0000     0.0000 </r>
       <r>   -15.2766     0.0000     0.0000 </r>
       <r>   -15.2658     0.0000     0.0000 </r>
       <r>   -15.2549     0.0000     0.0000 </r>
       <r>   -15.2441     0.0000     0.0000 </r>
       <r>   -15.2332     0.0000     0.0000 </r>
       <r>   -15.2223     0.0000     0.0000 </r>
       <r>   -15.2115     0.0000     0.0000 </r>
       <r>   -15.2006     0.0000     0.0000 </r>
       <r>   -15.1898     0.0000     0.0000 </r>
       <r>   -15.1789     0.0000     0.0000 </r>
       <r>   -15.1681     0.0000     0.0000 </r>
       <r>   -15.1572     0.0000     0.0000 </r>
       <r>   -15.1464     0.0000     0.0000 </r>
       <r>   -15.1355     0.0000     0.0000 </r>
       <r>   -15.1247     0.0000     0.0000 </r>
       <r>   -15.1138     0.0000     0.0000 </r>
       <r>   -15.1030     0.0000     0.0000 </r>
       <r>   -15.0921     0.0000     0.0000 </r>
       <r>   -15.0813     0.0000     0.0000 </r>
       <r>   -15.0704     0.0000     0.0000 </r>
       <r>   -15.0596     0.0000     0.0000 </r>
       <r>   -15.0487     0.0000     0.0000 </r>
       <r>   -15.0378     0.0000     0.0000 </r>
       <r>   -15.0270     0.0000     0.0000 </r>
       <r>   -15.0161     0.0000     0.0000 </r>
       <r>   -15.0053     0.0000     0.0000 </r>
       <r>   -14.9944     0.0000     0.0000 </r>
       <r>   -14.9836     0.0000     0.0000 </r>
       <r>   -14.9727     0.0000     0.0000 </r>
       <r>   -14.9619     0.0000     0.0000 </r>
       <r>   -14.9510     0.0000     0.0000 </r>
       <r>   -14.9402     0.0000     0.0000 </r>
       <r>   -14.9293     0.0000     0.0000 </r>
       <r>   -14.9185     0.0000     0.0000 </r>
       <r>   -14.9076     0.0000     0.0000 </r>
       <r>   -14.8968     0.0000     0.0000 </r>
       <r>   -14.8859     0.0000     0.0000 </r>
       <r>   -14.8751     0.0162     0.0002 </r>
       <r>   -14.8642     0.6940     0.0077 </r>
       <r>   -14.8533     3.7655     0.0486 </r>
       <r>   -14.8425     2.8913     0.0800 </r>
       <r>   -14.8316     0.3075     0.0833 </r>
       <r>   -14.8208     0.0040     0.0833 </r>
       <r>   -14.8099     0.0000     0.0833 </r>
       <r>   -14.7991     0.0000     0.0833 </r>
       <r>   -14.7882     0.0000     0.0833 </r>
       <r>   -14.7774     0.0000     0.0833 </r>
       <r>   -14.7665     0.0000     0.0833 </r>
       <r>   -14.7557     0.0113     0.0835 </r>
       <r>   -14.7448     0.5650     0.0896 </r>
       <r>   -14.7340     3.5555     0.1282 </r>
       <r>   -14.7231     3.1513     0.1624 </r>
       <r>   -14.7123     0.3895     0.1666 </r>
       <r>   -14.7014     0.0059     0.1667 </r>
       <r>   -14.6906     0.0019     0.1667 </r>
       <r>   -14.6797     0.1939     0.1688 </r>
       <r>   -14.6689     2.4028     0.1949 </r>
       <r>   -14.6580     4.0681     0.2390 </r>
       <r>   -14.6471     0.9812     0.2497 </r>
       <r>   -14.6363     0.0305     0.2500 </r>
       <r>   -14.6254     0.0001     0.2500 </r>
       <r>   -14.6146     0.0000     0.2500 </r>
       <r>   -14.6037     0.0000     0.2500 </r>
       <r>   -14.5929     0.0000     0.2500 </r>
       <r>   -14.5820     0.0000     0.2500 </r>
       <r>   -14.5712     0.0000     0.2500 </r>
       <r>   -14.5603     0.0003     0.2500 </r>
       <r>   -14.5495     0.0790     0.2509 </r>
       <r>   -14.5386     2.2478     0.2753 </r>
       <r>   -14.5278     8.3227     0.3656 </r>
       <r>   -14.5169     4.8153     0.4178 </r>
       <r>   -14.5061     5.2916     0.4753 </r>
       <r>   -14.4952     8.0502     0.5626 </r>
       <r>   -14.4844     1.8521     0.5827 </r>
       <r>   -14.4735     0.0548     0.5833 </r>
       <r>   -14.4626     0.0002     0.5833 </r>
       <r>   -14.4518     0.0000     0.5833 </r>
       <r>   -14.4409     0.0004     0.5833 </r>
       <r>   -14.4301     0.0914     0.5843 </r>
       <r>   -14.4192     2.4246     0.6106 </r>
       <r>   -14.4084     8.4861     0.7027 </r>
       <r>   -14.3975     6.4932     0.7732 </r>
       <r>   -14.3867     8.6399     0.8670 </r>
       <r>   -14.3758     4.2796     0.9134 </r>
       <r>   -14.3650     0.3300     0.9170 </r>
       <r>   -14.3541     1.4232     0.9325 </r>
       <r>   -14.3433     7.9554     1.0188 </r>
       <r>   -14.3324    10.5136     1.1329 </r>
       <r>   -14.3216     8.7455     1.2278 </r>
       <r>   -14.3107     1.9829     1.2493 </r>
       <r>   -14.2999     0.0618     1.2500 </r>
       <r>   -14.2890     0.0002     1.2500 </r>
       <r>   -14.2781     0.0000     1.2500 </r>
       <r>   -14.2673     0.0000     1.2500 </r>
       <r>   -14.2564     0.0000     1.2500 </r>
       <r>   -14.2456     0.0000     1.2500 </r>
       <r>   -14.2347     0.0000     1.2500 </r>
       <r>   -14.2239     0.0000     1.2500 </r>
       <r>   -14.2130     0.0009     1.2500 </r>
       <r>   -14.2022     0.1962     1.2521 </r>
       <r>   -14.1913     5.0298     1.3067 </r>
       <r>   -14.1805    16.8719     1.4898 </r>
       <r>   -14.1696     8.0879     1.5776 </r>
       <r>   -14.1588     0.5232     1.5833 </r>
       <r>   -14.1479     0.0040     1.5833 </r>
       <r>   -14.1371     0.0000     1.5833 </r>
       <r>   -14.1262     0.0000     1.5833 </r>
       <r>   -14.1154     0.0000     1.5833 </r>
       <r>   -14.1045     0.0001     1.5833 </r>
       <r>   -14.0937     0.0499     1.5839 </r>
       <r>   -14.0828     2.3944     1.6099 </r>
       <r>   -14.0719    14.4641     1.7668 </r>
       <r>   -14.0611    12.3227     1.9006 </r>
       <r>   -14.0502     1.4615     1.9164 </r>
       <r>   -14.0394     0.0244     1.9167 </r>
       <r>   -14.0285     0.4450     1.9215 </r>
       <r>   -14.0177     7.5089     2.0030 </r>
       <r>   -14.0068    17.0101     2.1876 </r>
       <r>   -13.9960     5.5107     2.2474 </r>
       <r>   -13.9851     0.2350     2.2500 </r>
       <r>   -13.9743     0.0012     2.2500 </r>
       <r>   -13.9634     0.0000     2.2500 </r>
       <r>   -13.9526     0.0000     2.2500 </r>
       <r>   -13.9417     0.0000     2.2500 </r>
       <r>   -13.9309     0.0000     2.2500 </r>
       <r>   -13.9200     0.0000     2.2500 </r>
       <r>   -13.9092     0.0000     2.2500 </r>
       <r>   -13.8983     0.0000     2.2500 </r>
       <r>   -13.8874     0.0000     2.2500 </r>
       <r>   -13.8766     0.0000     2.2500 </r>
       <r>   -13.8657     0.0000     2.2500 </r>
       <r>   -13.8549     0.0000     2.2500 </r>
       <r>   -13.8440     0.0000     2.2500 </r>
       <r>   -13.8332     0.0000     2.2500 </r>
       <r>   -13.8223     0.0000     2.2500 </r>
       <r>   -13.8115     0.0000     2.2500 </r>
       <r>   -13.8006     0.0000     2.2500 </r>
       <r>   -13.7898     0.0000     2.2500 </r>
       <r>   -13.7789     0.0000     2.2500 </r>
       <r>   -13.7681     0.0000     2.2500 </r>
       <r>   -13.7572     0.0000     2.2500 </r>
       <r>   -13.7464     0.0000     2.2500 </r>
       <r>   -13.7355     0.0000     2.2500 </r>
       <r>   -13.7247     0.0000     2.2500 </r>
       <r>   -13.7138     0.0000     2.2500 </r>
       <r>   -13.7029     0.0000     2.2500 </r>
       <r>   -13.6921     0.0000     2.2500 </r>
       <r>   -13.6812     0.0000     2.2500 </r>
       <r>   -13.6704     0.0000     2.2500 </r>
       <r>   -13.6595     0.0000     2.2500 </r>
       <r>   -13.6487     0.0000     2.2500 </r>
       <r>   -13.6378     0.0000     2.2500 </r>
       <r>   -13.6270     0.0000     2.2500 </r>
       <r>   -13.6161     0.0000     2.2500 </r>
       <r>   -13.6053     0.0010     2.2500 </r>
       <r>   -13.5944     0.1657     2.2518 </r>
       <r>   -13.5836     3.2651     2.2872 </r>
       <r>   -13.5727     8.5583     2.3801 </r>
       <r>   -13.5619     3.4801     2.4179 </r>
       <r>   -13.5510     4.2748     2.4643 </r>
       <r>   -13.5402     8.4159     2.5556 </r>
       <r>   -13.5293     2.4587     2.5823 </r>
       <r>   -13.5184     0.0939     2.5833 </r>
       <r>   -13.5076     0.0006     2.5833 </r>
       <r>   -13.4967     0.0466     2.5838 </r>
       <r>   -13.4859     1.7065     2.6024 </r>
       <r>   -13.4750     8.6401     2.6961 </r>
       <r>   -13.4642    11.4176     2.8200 </r>
       <r>   -13.4533     7.7000     2.9036 </r>
       <r>   -13.4425     1.9832     2.9251 </r>
       <r>   -13.4316     6.3649     2.9942 </r>
       <r>   -13.4208     7.1061     3.0713 </r>
       <r>   -13.4099     2.4005     3.0974 </r>
       <r>   -13.3991     7.4042     3.1777 </r>
       <r>   -13.3882     5.9768     3.2426 </r>
       <r>   -13.3774     0.6720     3.2499 </r>
       <r>   -13.3665     0.0093     3.2500 </r>
       <r>   -13.3557     0.0000     3.2500 </r>
       <r>   -13.3448     0.0000     3.2500 </r>
       <r>   -13.3340     0.0000     3.2500 </r>
       <r>   -13.3231     0.0000     3.2500 </r>
       <r>   -13.3122     0.0000     3.2500 </r>
       <r>   -13.3014     0.0000     3.2500 </r>
       <r>   -13.2905     0.0000     3.2500 </r>
       <r>   -13.2797     0.0033     3.2500 </r>
       <r>   -13.2688     0.4618     3.2550 </r>
       <r>   -13.2580     7.8741     3.3405 </r>
       <r>   -13.2471    22.6061     3.5858 </r>
       <r>   -13.2363    22.4401     3.8294 </r>
       <r>   -13.2254     7.6092     3.9120 </r>
       <r>   -13.2146     0.4302     3.9166 </r>
       <r>   -13.2037     0.0030     3.9167 </r>
       <r>   -13.1929     0.0385     3.9171 </r>
       <r>   -13.1820     2.0662     3.9395 </r>
       <r>   -13.1712    13.8470     4.0898 </r>
       <r>   -13.1603    13.7754     4.2393 </r>
       <r>   -13.1495    11.1982     4.3608 </r>
       <r>   -13.1386    17.5430     4.5512 </r>
       <r>   -13.1277    15.3782     4.7181 </r>
       <r>   -13.1169    15.3448     4.8846 </r>
       <r>   -13.1060     3.5034     4.9227 </r>
       <r>   -13.0952     8.7808     5.0180 </r>
       <r>   -13.0843    16.6660     5.1988 </r>
       <r>   -13.0735     4.5515     5.2482 </r>
       <r>   -13.0626     0.1617     5.2500 </r>
       <r>   -13.0518     0.0007     5.2500 </r>
       <r>   -13.0409     0.0000     5.2500 </r>
       <r>   -13.0301     0.0000     5.2500 </r>
       <r>   -13.0192     0.0000     5.2500 </r>
       <r>   -13.0084     0.0000     5.2500 </r>
       <r>   -12.9975     0.0000     5.2500 </r>
       <r>   -12.9867     0.0000     5.2500 </r>
       <r>   -12.9758     0.0000     5.2500 </r>
       <r>   -12.9650     0.0000     5.2500 </r>
       <r>   -12.9541     0.0000     5.2500 </r>
       <r>   -12.9432     0.0000     5.2500 </r>
       <r>   -12.9324     0.0000     5.2500 </r>
       <r>   -12.9215     0.0000     5.2500 </r>
       <r>   -12.9107     0.0000     5.2500 </r>
       <r>   -12.8998     0.0000     5.2500 </r>
       <r>   -12.8890     0.0000     5.2500 </r>
       <r>   -12.8781     0.0000     5.2500 </r>
       <r>   -12.8673     0.0000     5.2500 </r>
       <r>   -12.8564     0.0000     5.2500 </r>
       <r>   -12.8456     0.0000     5.2500 </r>
       <r>   -12.8347     0.0000     5.2500 </r>
       <r>   -12.8239     0.0000     5.2500 </r>
       <r>   -12.8130     0.0000     5.2500 </r>
       <r>   -12.8022     0.0000     5.2500 </r>
       <r>   -12.7913     0.0000     5.2500 </r>
       <r>   -12.7805     0.0000     5.2500 </r>
       <r>   -12.7696     0.0000     5.2500 </r>
       <r>   -12.7588     0.0000     5.2500 </r>
       <r>   -12.7479     0.0000     5.2500 </r>
       <r>   -12.7370     0.0000     5.2500 </r>
       <r>   -12.7262     0.0000     5.2500 </r>
       <r>   -12.7153     0.0000     5.2500 </r>
       <r>   -12.7045     0.0000     5.2500 </r>
       <r>   -12.6936     0.0000     5.2500 </r>
       <r>   -12.6828     0.0000     5.2500 </r>
       <r>   -12.6719     0.0000     5.2500 </r>
       <r>   -12.6611     0.0000     5.2500 </r>
       <r>   -12.6502     0.0000     5.2500 </r>
       <r>   -12.6394     0.0000     5.2500 </r>
       <r>   -12.6285     0.0000     5.2500 </r>
       <r>   -12.6177     0.0186     5.2502 </r>
       <r>   -12.6068     1.0133     5.2612 </r>
       <r>   -12.5960     6.8783     5.3358 </r>
       <r>   -12.5851     6.5575     5.4070 </r>
       <r>   -12.5743     0.8746     5.4165 </r>
       <r>   -12.5634     0.0145     5.4167 </r>
       <r>   -12.5525     0.0000     5.4167 </r>
       <r>   -12.5417     0.0000     5.4167 </r>
       <r>   -12.5308     0.0000     5.4167 </r>
       <r>   -12.5200     0.0000     5.4167 </r>
       <r>   -12.5091     0.0000     5.4167 </r>
       <r>   -12.4983     0.0000     5.4167 </r>
       <r>   -12.4874     0.0032     5.4167 </r>
       <r>   -12.4766     0.3476     5.4205 </r>
       <r>   -12.4657     4.5866     5.4703 </r>
       <r>   -12.4549     8.2388     5.5597 </r>
       <r>   -12.4440     2.1105     5.5826 </r>
       <r>   -12.4332     0.0701     5.5833 </r>
       <r>   -12.4223     0.0286     5.5836 </r>
       <r>   -12.4115     1.2892     5.5976 </r>
       <r>   -12.4006     7.5819     5.6799 </r>
       <r>   -12.3898    11.1320     5.8007 </r>
       <r>   -12.3789    19.2705     6.0099 </r>
       <r>   -12.3680    12.3293     6.1437 </r>
       <r>   -12.3572     2.0416     6.1658 </r>
       <r>   -12.3463     0.0762     6.1667 </r>
       <r>   -12.3355     0.0778     6.1675 </r>
       <r>   -12.3246     3.0640     6.2008 </r>
       <r>   -12.3138    15.4390     6.3683 </r>
       <r>   -12.3029    11.0549     6.4883 </r>
       <r>   -12.2921     2.8372     6.5191 </r>
       <r>   -12.2812    18.5239     6.7201 </r>
       <r>   -12.2704    31.6030     7.0631 </r>
       <r>   -12.2595     9.1370     7.1623 </r>
       <r>   -12.2487     0.4028     7.1666 </r>
       <r>   -12.2378     0.0023     7.1667 </r>
       <r>   -12.2270     0.0000     7.1667 </r>
       <r>   -12.2161     0.0000     7.1667 </r>
       <r>   -12.2053     0.0000     7.1667 </r>
       <r>   -12.1944     0.0000     7.1667 </r>
       <r>   -12.1836     0.0001     7.1667 </r>
       <r>   -12.1727     0.0320     7.1670 </r>
       <r>   -12.1618     1.8544     7.1871 </r>
       <r>   -12.1510    13.3754     7.3323 </r>
       <r>   -12.1401    13.8423     7.4825 </r>
       <r>   -12.1293     4.8941     7.5356 </r>
       <r>   -12.1184     3.7416     7.5763 </r>
       <r>   -12.1076     1.5824     7.5934 </r>
       <r>   -12.0967    10.3961     7.7063 </r>
       <r>   -12.0859    15.9281     7.8791 </r>
       <r>   -12.0750     5.6457     7.9404 </r>
       <r>   -12.0642     8.3919     8.0315 </r>
       <r>   -12.0533     4.6212     8.0816 </r>
       <r>   -12.0425     3.6150     8.1209 </r>
       <r>   -12.0316     8.5586     8.2137 </r>
       <r>   -12.0208     3.1833     8.2483 </r>
       <r>   -12.0099     0.1573     8.2500 </r>
       <r>   -11.9991     0.0009     8.2500 </r>
       <r>   -11.9882     0.0025     8.2500 </r>
       <r>   -11.9773     0.2999     8.2533 </r>
       <r>   -11.9665     4.3362     8.3003 </r>
       <r>   -11.9556     9.4441     8.4028 </r>
       <r>   -11.9448     6.4584     8.4729 </r>
       <r>   -11.9339     2.3338     8.4983 </r>
       <r>   -11.9231     0.7097     8.5060 </r>
       <r>   -11.9122     5.5178     8.5658 </r>
       <r>   -11.9014     7.7193     8.6496 </r>
       <r>   -11.8905     1.5319     8.6662 </r>
       <r>   -11.8797     0.0446     8.6667 </r>
       <r>   -11.8688     0.6675     8.6740 </r>
       <r>   -11.8580     9.0123     8.7718 </r>
       <r>   -11.8471    16.5464     8.9514 </r>
       <r>   -11.8363     4.3340     8.9984 </r>
       <r>   -11.8254     0.1473     9.0000 </r>
       <r>   -11.8146     0.0164     9.0002 </r>
       <r>   -11.8037     0.9229     9.0102 </r>
       <r>   -11.7928     6.6755     9.0826 </r>
       <r>   -11.7820     6.8656     9.1571 </r>
       <r>   -11.7711     4.5069     9.2061 </r>
       <r>   -11.7603    15.9700     9.3794 </r>
       <r>   -11.7494    10.2147     9.4902 </r>
       <r>   -11.7386     1.6047     9.5077 </r>
       <r>   -11.7277     9.2571     9.6081 </r>
       <r>   -11.7169    16.4445     9.7866 </r>
       <r>   -11.7060     4.1696     9.8318 </r>
       <r>   -11.6952     0.1369     9.8333 </r>
       <r>   -11.6843     0.0005     9.8333 </r>
       <r>   -11.6735     0.0000     9.8333 </r>
       <r>   -11.6626     0.0000     9.8333 </r>
       <r>   -11.6518     0.0000     9.8333 </r>
       <r>   -11.6409     0.0011     9.8333 </r>
       <r>   -11.6301     0.1760     9.8353 </r>
       <r>   -11.6192     3.3606     9.8717 </r>
       <r>   -11.6083     8.5532     9.9646 </r>
       <r>   -11.5975     3.1149     9.9984 </r>
       <r>   -11.5866     0.1831    10.0003 </r>
       <r>   -11.5758     1.3958    10.0155 </r>
       <r>   -11.5649     7.5408    10.0973 </r>
       <r>   -11.5541     5.7692    10.1599 </r>
       <r>   -11.5432     0.6113    10.1666 </r>
       <r>   -11.5324     0.0412    10.1670 </r>
       <r>   -11.5215     1.8993    10.1876 </r>
       <r>   -11.5107    13.4735    10.3339 </r>
       <r>   -11.4998    13.4054    10.4794 </r>
       <r>   -11.4890     1.8699    10.4996 </r>
       <r>   -11.4781     0.0324    10.5000 </r>
       <r>   -11.4673     0.0003    10.5000 </r>
       <r>   -11.4564     0.0891    10.5010 </r>
       <r>   -11.4456     3.3105    10.5369 </r>
       <r>   -11.4347    15.7188    10.7075 </r>
       <r>   -11.4239    10.6005    10.8225 </r>
       <r>   -11.4130     0.9837    10.8332 </r>
       <r>   -11.4021     0.0111    10.8333 </r>
       <r>   -11.3913     0.0000    10.8333 </r>
       <r>   -11.3804     0.0000    10.8333 </r>
       <r>   -11.3696     0.0000    10.8333 </r>
       <r>   -11.3587     0.0099    10.8334 </r>
       <r>   -11.3479     0.9208    10.8434 </r>
       <r>   -11.3370    10.3215    10.9555 </r>
       <r>   -11.3262    15.8953    11.1280 </r>
       <r>   -11.3153     4.2789    11.1744 </r>
       <r>   -11.3045     9.8479    11.2813 </r>
       <r>   -11.2936    16.2024    11.4571 </r>
       <r>   -11.2828     3.8339    11.4987 </r>
       <r>   -11.2719     0.1169    11.5000 </r>
       <r>   -11.2611     0.0004    11.5000 </r>
       <r>   -11.2502     0.0000    11.5000 </r>
       <r>   -11.2394     0.0000    11.5000 </r>
       <r>   -11.2285     0.0000    11.5000 </r>
       <r>   -11.2176     0.0000    11.5000 </r>
       <r>   -11.2068     0.0000    11.5000 </r>
       <r>   -11.1959     0.0000    11.5000 </r>
       <r>   -11.1851     0.0000    11.5000 </r>
       <r>   -11.1742     0.0000    11.5000 </r>
       <r>   -11.1634     0.0000    11.5000 </r>
       <r>   -11.1525     0.0000    11.5000 </r>
       <r>   -11.1417     0.0000    11.5000 </r>
       <r>   -11.1308     0.0000    11.5000 </r>
       <r>   -11.1200     0.0000    11.5000 </r>
       <r>   -11.1091     0.0000    11.5000 </r>
       <r>   -11.0983     0.0000    11.5000 </r>
       <r>   -11.0874     0.0000    11.5000 </r>
       <r>   -11.0766     0.0000    11.5000 </r>
       <r>   -11.0657     0.0002    11.5000 </r>
       <r>   -11.0549     0.0478    11.5005 </r>
       <r>   -11.0440     1.7197    11.5192 </r>
       <r>   -11.0331     7.9255    11.6052 </r>
       <r>   -11.0223     5.1915    11.6615 </r>
       <r>   -11.0114     0.4672    11.6666 </r>
       <r>   -11.0006     0.0051    11.6667 </r>
       <r>   -10.9897     0.0000    11.6667 </r>
       <r>   -10.9789     0.0000    11.6667 </r>
       <r>   -10.9680     0.0000    11.6667 </r>
       <r>   -10.9572     0.0000    11.6667 </r>
       <r>   -10.9463     0.0000    11.6667 </r>
       <r>   -10.9355     0.0000    11.6667 </r>
       <r>   -10.9246     0.0000    11.6667 </r>
       <r>   -10.9138     0.0000    11.6667 </r>
       <r>   -10.9029     0.0000    11.6667 </r>
       <r>   -10.8921     0.0000    11.6667 </r>
       <r>   -10.8812     0.0000    11.6667 </r>
       <r>   -10.8704     0.0000    11.6667 </r>
       <r>   -10.8595     0.0000    11.6667 </r>
       <r>   -10.8487     0.0000    11.6667 </r>
       <r>   -10.8378     0.0000    11.6667 </r>
       <r>   -10.8269     0.0001    11.6667 </r>
       <r>   -10.8161     0.0328    11.6670 </r>
       <r>   -10.8052     1.3965    11.6822 </r>
       <r>   -10.7944     7.5429    11.7640 </r>
       <r>   -10.7835     5.7663    11.8266 </r>
       <r>   -10.7727     0.6105    11.8332 </r>
       <r>   -10.7618     0.0079    11.8333 </r>
       <r>   -10.7510     0.0000    11.8333 </r>
       <r>   -10.7401     0.0000    11.8333 </r>
       <r>   -10.7293     0.0000    11.8333 </r>
       <r>   -10.7184     0.0000    11.8333 </r>
       <r>   -10.7076     0.0000    11.8333 </r>
       <r>   -10.6967     0.0000    11.8333 </r>
       <r>   -10.6859     0.0000    11.8333 </r>
       <r>   -10.6750     0.0000    11.8333 </r>
       <r>   -10.6642     0.0000    11.8333 </r>
       <r>   -10.6533     0.0000    11.8333 </r>
       <r>   -10.6424     0.0171    11.8335 </r>
       <r>   -10.6316     0.9655    11.8440 </r>
       <r>   -10.6207     6.7737    11.9175 </r>
       <r>   -10.6099     6.6658    11.9899 </r>
       <r>   -10.5990     0.9189    11.9998 </r>
       <r>   -10.5882     0.0157    12.0000 </r>
       <r>   -10.5773     0.0000    12.0000 </r>
       <r>   -10.5665     0.0000    12.0000 </r>
       <r>   -10.5556     0.0000    12.0000 </r>
       <r>   -10.5448     0.0000    12.0000 </r>
       <r>   -10.5339     0.0000    12.0000 </r>
       <r>   -10.5231     0.0000    12.0000 </r>
       <r>   -10.5122     0.0000    12.0000 </r>
       <r>   -10.5014     0.0000    12.0000 </r>
       <r>   -10.4905     0.0000    12.0000 </r>
       <r>   -10.4797     0.0000    12.0000 </r>
       <r>   -10.4688     0.0000    12.0000 </r>
       <r>   -10.4579     0.0000    12.0000 </r>
       <r>   -10.4471     0.0000    12.0000 </r>
       <r>   -10.4362     0.0000    12.0000 </r>
       <r>   -10.4254     0.0000    12.0000 </r>
       <r>   -10.4145     0.0000    12.0000 </r>
       <r>   -10.4037     0.0000    12.0000 </r>
       <r>   -10.3928     0.0000    12.0000 </r>
       <r>   -10.3820     0.0000    12.0000 </r>
       <r>   -10.3711     0.0000    12.0000 </r>
       <r>   -10.3603     0.0000    12.0000 </r>
       <r>   -10.3494     0.0000    12.0000 </r>
       <r>   -10.3386     0.0000    12.0000 </r>
       <r>   -10.3277     0.0000    12.0000 </r>
       <r>   -10.3169     0.0000    12.0000 </r>
       <r>   -10.3060     0.0000    12.0000 </r>
       <r>   -10.2952     0.0000    12.0000 </r>
       <r>   -10.2843     0.0000    12.0000 </r>
       <r>   -10.2734     0.0001    12.0000 </r>
       <r>   -10.2626     0.0256    12.0003 </r>
       <r>   -10.2517     1.2153    12.0135 </r>
       <r>   -10.2409     7.2631    12.0923 </r>
       <r>   -10.2300     6.1241    12.1588 </r>
       <r>   -10.2192     0.7185    12.1666 </r>
       <r>   -10.2083     0.0104    12.1667 </r>
       <r>   -10.1975     0.0000    12.1667 </r>
       <r>   -10.1866     0.0056    12.1667 </r>
       <r>   -10.1758     0.4955    12.1721 </r>
       <r>   -10.1649     5.3170    12.2298 </r>
       <r>   -10.1541     8.0070    12.3167 </r>
       <r>   -10.1432     4.8312    12.3691 </r>
       <r>   -10.1324     8.5999    12.4625 </r>
       <r>   -10.1215     3.2885    12.4982 </r>
       <r>   -10.1107     0.1682    12.5000 </r>
       <r>   -10.0998     0.0010    12.5000 </r>
       <r>   -10.0890     0.0000    12.5000 </r>
       <r>   -10.0781     0.0000    12.5000 </r>
       <r>   -10.0672     0.0000    12.5000 </r>
       <r>   -10.0564     0.0000    12.5000 </r>
       <r>   -10.0455     0.0000    12.5000 </r>
       <r>   -10.0347     0.0000    12.5000 </r>
       <r>   -10.0238     0.0000    12.5000 </r>
       <r>   -10.0130     0.0000    12.5000 </r>
       <r>   -10.0021     0.0000    12.5000 </r>
       <r>    -9.9913     0.0000    12.5000 </r>
       <r>    -9.9804     0.0000    12.5000 </r>
       <r>    -9.9696     0.0000    12.5000 </r>
       <r>    -9.9587     0.0000    12.5000 </r>
       <r>    -9.9479     0.0000    12.5000 </r>
       <r>    -9.9370     0.0000    12.5000 </r>
       <r>    -9.9262     0.0000    12.5000 </r>
       <r>    -9.9153     0.0000    12.5000 </r>
       <r>    -9.9045     0.0000    12.5000 </r>
       <r>    -9.8936     0.0000    12.5000 </r>
       <r>    -9.8827     0.0000    12.5000 </r>
       <r>    -9.8719     0.0000    12.5000 </r>
       <r>    -9.8610     0.0000    12.5000 </r>
       <r>    -9.8502     0.0000    12.5000 </r>
       <r>    -9.8393     0.0000    12.5000 </r>
       <r>    -9.8285     0.0000    12.5000 </r>
       <r>    -9.8176     0.0000    12.5000 </r>
       <r>    -9.8068     0.0000    12.5000 </r>
       <r>    -9.7959     0.0000    12.5000 </r>
       <r>    -9.7851     0.0000    12.5000 </r>
       <r>    -9.7742     0.0108    12.5001 </r>
       <r>    -9.7634     0.9698    12.5106 </r>
       <r>    -9.7525    10.5403    12.6250 </r>
       <r>    -9.7417    15.7560    12.7960 </r>
       <r>    -9.7308     3.3459    12.8323 </r>
       <r>    -9.7200     0.0909    12.8333 </r>
       <r>    -9.7091     0.0003    12.8333 </r>
       <r>    -9.6982     0.0000    12.8333 </r>
       <r>    -9.6874     0.0000    12.8333 </r>
       <r>    -9.6765     0.0000    12.8333 </r>
       <r>    -9.6657     0.0000    12.8333 </r>
       <r>    -9.6548     0.0000    12.8333 </r>
       <r>    -9.6440     0.0000    12.8333 </r>
       <r>    -9.6331     0.0000    12.8333 </r>
       <r>    -9.6223     0.0001    12.8333 </r>
       <r>    -9.6114     0.0417    12.8338 </r>
       <r>    -9.6006     2.1632    12.8573 </r>
       <r>    -9.5897    14.0365    13.0096 </r>
       <r>    -9.5789    12.8133    13.1487 </r>
       <r>    -9.5680     1.6334    13.1664 </r>
       <r>    -9.5572     0.0265    13.1667 </r>
       <r>    -9.5463     0.1453    13.1683 </r>
       <r>    -9.5355     3.0622    13.2015 </r>
       <r>    -9.5246     8.5499    13.2943 </r>
       <r>    -9.5138     3.4156    13.3313 </r>
       <r>    -9.5029     0.2069    13.3336 </r>
       <r>    -9.4920     1.6040    13.3510 </r>
       <r>    -9.4812    13.1944    13.4942 </r>
       <r>    -9.4703    21.7884    13.7307 </r>
       <r>    -9.4595    19.1310    13.9383 </r>
       <r>    -9.4486     5.6496    13.9996 </r>
       <r>    -9.4378     5.2384    14.0565 </r>
       <r>    -9.4269    16.8662    14.2395 </r>
       <r>    -9.4161     8.3014    14.3296 </r>
       <r>    -9.4052     3.9728    14.3727 </r>
       <r>    -9.3944     8.5517    14.4655 </r>
       <r>    -9.3835     3.0338    14.4984 </r>
       <r>    -9.3727     0.1426    14.5000 </r>
       <r>    -9.3618     0.0008    14.5000 </r>
       <r>    -9.3510     0.0000    14.5000 </r>
       <r>    -9.3401     0.0000    14.5000 </r>
       <r>    -9.3293     0.0000    14.5000 </r>
       <r>    -9.3184     0.0000    14.5000 </r>
       <r>    -9.3075     0.0000    14.5000 </r>
       <r>    -9.2967     0.0144    14.5002 </r>
       <r>    -9.2858     1.1544    14.5127 </r>
       <r>    -9.2750    11.2886    14.6352 </r>
       <r>    -9.2641    15.2619    14.8008 </r>
       <r>    -9.2533     2.9233    14.8326 </r>
       <r>    -9.2424     0.0711    14.8333 </r>
       <r>    -9.2316     0.0002    14.8333 </r>
       <r>    -9.2207     0.0000    14.8333 </r>
       <r>    -9.2099     0.0012    14.8333 </r>
       <r>    -9.1990     0.2429    14.8360 </r>
       <r>    -9.1882     5.7383    14.8983 </r>
       <r>    -9.1773    20.0697    15.1161 </r>
       <r>    -9.1665    15.9603    15.2893 </r>
       <r>    -9.1556     3.8698    15.3313 </r>
       <r>    -9.1448     0.1874    15.3333 </r>
       <r>    -9.1339     0.0012    15.3333 </r>
       <r>    -9.1230     0.0000    15.3333 </r>
       <r>    -9.1122     0.0000    15.3333 </r>
       <r>    -9.1013     0.0000    15.3333 </r>
       <r>    -9.0905     0.0000    15.3333 </r>
       <r>    -9.0796     0.0000    15.3333 </r>
       <r>    -9.0688     0.0006    15.3333 </r>
       <r>    -9.0579     0.1538    15.3350 </r>
       <r>    -9.0471     4.4336    15.3831 </r>
       <r>    -9.0362    16.6035    15.5633 </r>
       <r>    -9.0254     8.9547    15.6605 </r>
       <r>    -9.0145     3.7920    15.7017 </r>
       <r>    -9.0037    15.5278    15.8702 </r>
       <r>    -8.9928    10.8921    15.9884 </r>
       <r>    -8.9820     1.0572    15.9999 </r>
       <r>    -8.9711     0.0125    16.0000 </r>
       <r>    -8.9603     0.0000    16.0000 </r>
       <r>    -8.9494     0.0000    16.0000 </r>
       <r>    -8.9385     0.0000    16.0000 </r>
       <r>    -8.9277     0.0005    16.0000 </r>
       <r>    -8.9168     0.1024    16.0011 </r>
       <r>    -8.9060     2.6997    16.0304 </r>
       <r>    -8.8951    12.5971    16.1671 </r>
       <r>    -8.8843    20.4103    16.3886 </r>
       <r>    -8.8734     9.5422    16.4922 </r>
       <r>    -8.8626     1.1752    16.5050 </r>
       <r>    -8.8517     5.6273    16.5660 </r>
       <r>    -8.8409    14.7349    16.7259 </r>
       <r>    -8.8300    17.6220    16.9172 </r>
       <r>    -8.8192     7.0904    16.9941 </r>
       <r>    -8.8083     0.5342    16.9999 </r>
       <r>    -8.7975     0.0213    17.0002 </r>
       <r>    -8.7866     1.2191    17.0134 </r>
       <r>    -8.7758    11.5261    17.1385 </r>
       <r>    -8.7649    15.0906    17.3023 </r>
       <r>    -8.7541     2.7973    17.3326 </r>
       <r>    -8.7432     0.2171    17.3350 </r>
       <r>    -8.7323     3.1250    17.3689 </r>
       <r>    -8.7215     8.5537    17.4617 </r>
       <r>    -8.7106     3.3502    17.4981 </r>
       <r>    -8.6998     0.1748    17.5000 </r>
       <r>    -8.6889     0.0065    17.5001 </r>
       <r>    -8.6781     0.6335    17.5069 </r>
       <r>    -8.6672     8.8092    17.6025 </r>
[...]
        <r>  0.0000  0.0026  0.0047  0.0280  0.0000  0.0000  0.0000  0.0000  0.0000 </r>
        <r>  0.0000  0.0183  0.0326  0.0040  0.0000  0.0000  0.0000  0.0000  0.0000 </r>
        <r>  0.0000  0.0026  0.0047  0.0280  0.0000  0.0000  0.0000  0.0000  0.0000 </r>
        <r>  0.0000  0.0183  0.0326  0.0040  0.0000  0.0000  0.0000  0.0000  0.0000 </r>
        <r>  0.0258  0.0036  0.0116  0.0010  0.0000  0.0000  0.0000  0.0000  0.0000 </r>
        <r>  0.0037  0.0005  0.0017  0.0068  0.0000  0.0000  0.0000  0.0000  0.0000 </r>
        <r>  0.0272  0.0060  0.0194  0.0019  0.0000  0.0000  0.0000  0.0000  0.0000 </r>
        <r>  0.0039  0.0009  0.0028  0.0129  0.0000  0.0000  0.0000  0.0000  0.0000 </r>
       </set>
       <set comment="band 25">
        <r>  0.0000  0.0003  0.0001  0.0007  0.0000  0.0000  0.0000  0.0000  0.0000 </r>
        <r>  0.0002  0.0025  0.0011  0.0001  0.0000  0.0000  0.0000  0.0000  0.0000 </r>
        <r>  0.0001  0.0000  0.0003  0.0013  0.0000  0.0000  0.0000  0.0000  0.0000 </r>
        <r>  0.0005  0.0001  0.0021  0.0002  0.0000  0.0000  0.0000  0.0000  0.0000 </r>
        <r>  0.0177  0.1359  0.0196  0.0022  0.0000  0.0000  0.0000  0.0000  0.0000 </r>
        <r>  0.0022  0.0172  0.0025  0.0170  0.0000  0.0000  0.0000  0.0000  0.0000 </r>
        <r>  0.0177  0.1359  0.0196  0.0022  0.0000  0.0000  0.0000  0.0000  0.0000 </r>
        <r>  0.0022  0.0172  0.0025  0.0170  0.0000  0.0000  0.0000  0.0000  0.0000 </r>
        <r>  0.0001  0.0000  0.0003  0.0013  0.0000  0.0000  0.0000  0.0000  0.0000 </r>
        <r>  0.0005  0.0001  0.0021  0.0002  0.0000  0.0000  0.0000  0.0000  0.0000 </r>
        <r>  0.0000  0.0003  0.0001  0.0007  0.0000  0.0000  0.0000  0.0000  0.0000 </r>
        <r>  0.0002  0.0025  0.0011  0.0001  0.0000  0.0000  0.0000  0.0000  0.0000 </r>
       </set>
       <set comment="band 26">
        <r>  0.0002  0.0025  0.0011  0.0001  0.0000  0.0000  0.0000  0.0000  0.0000 </r>
        <r>  0.0000  0.0003  0.0001  0.0007  0.0000  0.0000  0.0000  0.0000  0.0000 </r>
        <r>  0.0005  0.0001  0.0021  0.0002  0.0000  0.0000  0.0000  0.0000  0.0000 </r>
        <r>  0.0001  0.0000  0.0003  0.0013  0.0000  0.0000  0.0000  0.0000  0.0000 </r>
        <r>  0.0022  0.0172  0.0025  0.0170  0.0000  0.0000  0.0000  0.0000  0.0000 </r>
        <r>  0.0177  0.1359  0.0196  0.0022  0.0000  0.0000  0.0000  0.0000  0.0000 </r>
        <r>  0.0022  0.0172  0.0025  0.0170  0.0000  0.0000  0.0000  0.0000  0.0000 </r>
        <r>  0.0177  0.1359  0.0196  0.0022  0.0000  0.0000  0.0000  0.0000  0.0000 </r>
        <r>  0.0005  0.0001  0.0021  0.0002  0.0000  0.0000  0.0000  0.0000  0.0000 </r>
        <r>  0.0001  0.0000  0.0003  0.0013  0.0000  0.0000  0.0000  0.0000  0.0000 </r>
        <r>  0.0002  0.0025  0.0011  0.0001  0.0000  0.0000  0.0000  0.0000  0.0000 </r>
        <r>  0.0000  0.0003  0.0001  0.0007  0.0000  0.0000  0.0000  0.0000  0.0000 </r>
       </set>
       <set comment="band 27">
        <r>  0.0088  0.0543  0.0087  0.0033  0.0000  0.0000  0.0000  0.0000  0.0000 </r>
        <r>  0.0038  0.0237  0.0038  0.0075  0.0000  0.0000  0.0000  0.0000  0.0000 </r>
        <r>  0.0056  0.0542  0.0070  0.0027  0.0000  0.0000  0.0000  0.0000  0.0000 </r>
        <r>  0.0024  0.0237  0.0031  0.0063  0.0000  0.0000  0.0000  0.0000  0.0000 </r>
        <r>  0.0002  0.0006  0.0000  0.0000  0.0000  0.0000  0.0000  0.0000  0.0000 </r>
        <r>  0.0005  0.0014  0.0001  0.0000  0.0000  0.0000  0.0000  0.0000  0.0000 </r>
        <r>  0.0002  0.0006  0.0000  0.0000  0.0000  0.0000  0.0000  0.0000  0.0000 </r>
        <r>  0.0005  0.0014  0.0001  0.0000  0.0000  0.0000  0.0000  0.0000  0.0000 </r>
        <r>  0.0056  0.0542  0.0070  0.0027  0.0000  0.0000  0.0000  0.0000  0.0000 </r>
        <r>  0.0024  0.0237  0.0031  0.0063  0.0000  0.0000  0.0000  0.0000  0.0000 </r>
        <r>  0.0088  0.0543  0.0087  0.0033  0.0000  0.0000  0.0000  0.0000  0.0000 </r>
        <r>  0.0038  0.0237  0.0038  0.0075  0.0000  0.0000  0.0000  0.0000  0.0000 </r>
       </set>
       <set comment="band 28">
        <r>  0.0038  0.0237  0.0038  0.0075  0.0000  0.0000  0.0000  0.0000  0.0000 </r>
        <r>  0.0088  0.0543  0.0087  0.0033  0.0000  0.0000  0.0000  0.0000  0.0000 </r>
        <r>  0.0024  0.0237  0.0031  0.0063  0.0000  0.0000  0.0000  0.0000  0.0000 </r>
        <r>  0.0056  0.0542  0.0070  0.0027  0.0000  0.0000  0.0000  0.0000  0.0000 </r>
        <r>  0.0005  0.0014  0.0001  0.0000  0.0000  0.0000  0.0000  0.0000  0.0000 </r>
        <r>  0.0002  0.0006  0.0000  0.0000  0.0000  0.0000  0.0000  0.0000  0.0000 </r>
        <r>  0.0005  0.0014  0.0001  0.0000  0.0000  0.0000  0.0000  0.0000  0.0000 </r>
        <r>  0.0002  0.0006  0.0000  0.0000  0.0000  0.0000  0.0000  0.0000  0.0000 </r>
        <r>  0.0024  0.0237  0.0031  0.0063  0.0000  0.0000  0.0000  0.0000  0.0000 </r>
        <r>  0.0056  0.0542  0.0070  0.0027  0.0000  0.0000  0.0000  0.0000  0.0000 </r>
        <r>  0.0038  0.0237  0.0038  0.0075  0.0000  0.0000  0.0000  0.0000  0.0000 </r>
        <r>  0.0088  0.0543  0.0087  0.0033  0.0000  0.0000  0.0000  0.0000  0.0000 </r>
       </set>
       <set comment="band 29">
        <r>  0.0099  0.0691  0.0105  0.0014  0.0000  0.0000  0.0000  0.0000  0.0000 </r>
        <r>  0.0015  0.0107  0.0016  0.0091  0.0000  0.0000  0.0000  0.0000  0.0000 </r>
        <r>  0.0090  0.0692  0.0101  0.0013  0.0000  0.0000  0.0000  0.0000  0.0000 </r>
        <r>  0.0014  0.0107  0.0016  0.0087  0.0000  0.0000  0.0000  0.0000  0.0000 </r>
        <r>  0.0000  0.0001  0.0005  0.0019  0.0000  0.0000  0.0000  0.0000  0.0000 </r>
        <r>  0.0000  0.0007  0.0029  0.0003  0.0000  0.0000  0.0000  0.0000  0.0000 </r>
        <r>  0.0000  0.0001  0.0005  0.0019  0.0000  0.0000  0.0000  0.0000  0.0000 </r>
        <r>  0.0000  0.0007  0.0029  0.0003  0.0000  0.0000  0.0000  0.0000  0.0000 </r>
        <r>  0.0090  0.0692  0.0101  0.0013  0.0000  0.0000  0.0000  0.0000  0.0000 </r>
        <r>  0.0014  0.0107  0.0016  0.0087  0.0000  0.0000  0.0000  0.0000  0.0000 </r>
        <r>  0.0099  0.0691  0.0105  0.0014  0.0000  0.0000  0.0000  0.0000  0.0000 </r>
        <r>  0.0015  0.0107  0.0016  0.0091  0.0000  0.0000  0.0000  0.0000  0.0000 </r>
       </set>
       <set comment="band 30">
        <r>  0.0015  0.0107  0.0016  0.0091  0.0000  0.0000  0.0000  0.0000  0.0000 </r>
        <r>  0.0099  0.0691  0.0105  0.0014  0.0000  0.0000  0.0000  0.0000  0.0000 </r>
        <r>  0.0014  0.0107  0.0016  0.0087  0.0000  0.0000  0.0000  0.0000  0.0000 </r>
        <r>  0.0090  0.0692  0.0101  0.0013  0.0000  0.0000  0.0000  0.0000  0.0000 </r>
        <r>  0.0000  0.0007  0.0029  0.0003  0.0000  0.0000  0.0000  0.0000  0.0000 </r>
        <r>  0.0000  0.0001  0.0005  0.0019  0.0000  0.0000  0.0000  0.0000  0.0000 </r>
        <r>  0.0000  0.0007  0.0029  0.0003  0.0000  0.0000  0.0000  0.0000  0.0000 </r>
        <r>  0.0000  0.0001  0.0005  0.0019  0.0000  0.0000  0.0000  0.0000  0.0000 </r>
        <r>  0.0014  0.0107  0.0016  0.0087  0.0000  0.0000  0.0000  0.0000  0.0000 </r>
        <r>  0.0090  0.0692  0.0101  0.0013  0.0000  0.0000  0.0000  0.0000  0.0000 </r>
        <r>  0.0015  0.0107  0.0016  0.0091  0.0000  0.0000  0.0000  0.0000  0.0000 </r>
        <r>  0.0099  0.0691  0.0105  0.0014  0.0000  0.0000  0.0000  0.0000  0.0000 </r>
       </set>
       <set comment="band 31">
        <r>  0.0079  0.0327  0.0024  0.0009  0.0000  0.0000  0.0000  0.0000  0.0000 </r>
        <r>  0.0034  0.0140  0.0010  0.0022  0.0000  0.0000  0.0000  0.0000  0.0000 </r>
        <r>  0.0074  0.0337  0.0010  0.0007  0.0000  0.0000  0.0000  0.0000  0.0000 </r>
        <r>  0.0032  0.0144  0.0004  0.0016  0.0000  0.0000  0.0000  0.0000  0.0000 </r>
        <r>  0.0020  0.0017  0.0003  0.0003  0.0000  0.0000  0.0000  0.0000  0.0000 </r>
        <r>  0.0046  0.0040  0.0006  0.0001  0.0000  0.0000  0.0000  0.0000  0.0000 </r>
        <r>  0.0020  0.0017  0.0003  0.0003  0.0000  0.0000  0.0000  0.0000  0.0000 </r>
        <r>  0.0046  0.0040  0.0006  0.0001  0.0000  0.0000  0.0000  0.0000  0.0000 </r>
        <r>  0.0074  0.0337  0.0010  0.0007  0.0000  0.0000  0.0000  0.0000  0.0000 </r>
        <r>  0.0032  0.0144  0.0004  0.0016  0.0000  0.0000  0.0000  0.0000  0.0000 </r>
        <r>  0.0079  0.0327  0.0024  0.0009  0.0000  0.0000  0.0000  0.0000  0.0000 </r>
        <r>  0.0034  0.0140  0.0010  0.0022  0.0000  0.0000  0.0000  0.0000  0.0000 </r>
       </set>
       <set comment="band 32">
        <r>  0.0034  0.0140  0.0010  0.0022  0.0000  0.0000  0.0000  0.0000  0.0000 </r>
        <r>  0.0079  0.0327  0.0024  0.0009  0.0000  0.0000  0.0000  0.0000  0.0000 </r>
        <r>  0.0032  0.0144  0.0004  0.0016  0.0000  0.0000  0.0000  0.0000  0.0000 </r>
        <r>  0.0074  0.0337  0.0010  0.0007  0.0000  0.0000  0.0000  0.0000  0.0000 </r>
        <r>  0.0046  0.0040  0.0006  0.0001  0.0000  0.0000  0.0000  0.0000  0.0000 </r>
        <r>  0.0020  0.0017  0.0003  0.0003  0.0000  0.0000  0.0000  0.0000  0.0000 </r>
        <r>  0.0046  0.0040  0.0006  0.0001  0.0000  0.0000  0.0000  0.0000  0.0000 </r>
        <r>  0.0020  0.0017  0.0003  0.0003  0.0000  0.0000  0.0000  0.0000  0.0000 </r>
        <r>  0.0032  0.0144  0.0004  0.0016  0.0000  0.0000  0.0000  0.0000  0.0000 </r>
        <r>  0.0074  0.0337  0.0010  0.0007  0.0000  0.0000  0.0000  0.0000  0.0000 </r>
        <r>  0.0034  0.0140  0.0010  0.0022  0.0000  0.0000  0.0000  0.0000  0.0000 </r>
        <r>  0.0079  0.0327  0.0024  0.0009  0.0000  0.0000  0.0000  0.0000  0.0000 </r>
       </set>
       <set comment="band 33">
        <r>  0.0000  0.0000  0.0000  0.0002  0.0000  0.0000  0.0000  0.0000  0.0000 </r>
        <r>  0.0004  0.0140  0.0004  0.0000  0.0000  0.0000  0.0000  0.0000  0.0000 </r>
        <r>  0.0000  0.0000  0.0000  0.0018  0.0000  0.0000  0.0000  0.0000  0.0000 </r>
        <r>  0.0088  0.0001  0.0039  0.0000  0.0000  0.0000  0.0000  0.0000  0.0000 </r>
        <r>  0.0221  0.0966  0.0051  0.0000  0.0000  0.0000  0.0000  0.0000  0.0000 </r>
        <r>  0.0001  0.0003  0.0000  0.0059  0.0000  0.0000  0.0000  0.0000  0.0000 </r>
        <r>  0.0221  0.0966  0.0051  0.0000  0.0000  0.0000  0.0000  0.0000  0.0000 </r>
        <r>  0.0001  0.0003  0.0000  0.0059  0.0000  0.0000  0.0000  0.0000  0.0000 </r>
        <r>  0.0000  0.0000  0.0000  0.0018  0.0000  0.0000  0.0000  0.0000  0.0000 </r>
        <r>  0.0088  0.0001  0.0039  0.0000  0.0000  0.0000  0.0000  0.0000  0.0000 </r>
        <r>  0.0000  0.0000  0.0000  0.0002  0.0000  0.0000  0.0000  0.0000  0.0000 </r>
        <r>  0.0004  0.0140  0.0004  0.0000  0.0000  0.0000  0.0000  0.0000  0.0000 </r>
       </set>
       <set comment="band 34">
        <r>  0.0004  0.0140  0.0004  0.0000  0.0000  0.0000  0.0000  0.0000  0.0000 </r>
        <r>  0.0000  0.0000  0.0000  0.0002  0.0000  0.0000  0.0000  0.0000  0.0000 </r>
        <r>  0.0088  0.0001  0.0039  0.0000  0.0000  0.0000  0.0000  0.0000  0.0000 </r>
        <r>  0.0000  0.0000  0.0000  0.0018  0.0000  0.0000  0.0000  0.0000  0.0000 </r>
        <r>  0.0001  0.0003  0.0000  0.0059  0.0000  0.0000  0.0000  0.0000  0.0000 </r>
        <r>  0.0221  0.0966  0.0051  0.0000  0.0000  0.0000  0.0000  0.0000  0.0000 </r>
        <r>  0.0001  0.0003  0.0000  0.0059  0.0000  0.0000  0.0000  0.0000  0.0000 </r>
        <r>  0.0221  0.0966  0.0051  0.0000  0.0000  0.0000  0.0000  0.0000  0.0000 </r>
        <r>  0.0088  0.0001  0.0039  0.0000  0.0000  0.0000  0.0000  0.0000  0.0000 </r>
        <r>  0.0000  0.0000  0.0000  0.0018  0.0000  0.0000  0.0000  0.0000  0.0000 </r>
        <r>  0.0004  0.0140  0.0004  0.0000  0.0000  0.0000  0.0000  0.0000  0.0000 </r>
        <r>  0.0000  0.0000  0.0000  0.0002  0.0000  0.0000  0.0000  0.0000  0.0000 </r>
       </set>
       <set comment="band 35">
        <r>  0.0005  0.0020  0.0001  0.0026  0.0000  0.0000  0.0000  0.0000  0.0000 </r>
        <r>  0.0122  0.0527  0.0021  0.0001  0.0000  0.0000  0.0000  0.0000  0.0000 </r>
        <r>  0.0005  0.0019  0.0002  0.0039  0.0000  0.0000  0.0000  0.0000  0.0000 </r>
        <r>  0.0126  0.0519  0.0045  0.0001  0.0000  0.0000  0.0000  0.0000  0.0000 </r>
        <r>  0.0025  0.0071  0.0035  0.0001  0.0000  0.0000  0.0000  0.0000  0.0000 </r>
        <r>  0.0001  0.0003  0.0001  0.0015  0.0000  0.0000  0.0000  0.0000  0.0000 </r>
        <r>  0.0025  0.0071  0.0035  0.0001  0.0000  0.0000  0.0000  0.0000  0.0000 </r>
        <r>  0.0001  0.0003  0.0001  0.0015  0.0000  0.0000  0.0000  0.0000  0.0000 </r>
        <r>  0.0005  0.0019  0.0002  0.0039  0.0000  0.0000  0.0000  0.0000  0.0000 </r>
        <r>  0.0126  0.0519  0.0045  0.0001  0.0000  0.0000  0.0000  0.0000  0.0000 </r>
        <r>  0.0005  0.0020  0.0001  0.0026  0.0000  0.0000  0.0000  0.0000  0.0000 </r>
        <r>  0.0122  0.0527  0.0021  0.0001  0.0000  0.0000  0.0000  0.0000  0.0000 </r>
       </set>
       <set comment="band 36">
        <r>  0.0122  0.0527  0.0021  0.0001  0.0000  0.0000  0.0000  0.0000  0.0000 </r>
        <r>  0.0005  0.0020  0.0001  0.0026  0.0000  0.0000  0.0000  0.0000  0.0000 </r>
        <r>  0.0126  0.0519  0.0045  0.0001  0.0000  0.0000  0.0000  0.0000  0.0000 </r>
        <r>  0.0005  0.0019  0.0002  0.0039  0.0000  0.0000  0.0000  0.0000  0.0000 </r>
        <r>  0.0001  0.0003  0.0001  0.0015  0.0000  0.0000  0.0000  0.0000  0.0000 </r>
        <r>  0.0025  0.0071  0.0035  0.0001  0.0000  0.0000  0.0000  0.0000  0.0000 </r>
        <r>  0.0001  0.0003  0.0001  0.0015  0.0000  0.0000  0.0000  0.0000  0.0000 </r>
        <r>  0.0025  0.0071  0.0035  0.0001  0.0000  0.0000  0.0000  0.0000  0.0000 </r>
        <r>  0.0126  0.0519  0.0045  0.0001  0.0000  0.0000  0.0000  0.0000  0.0000 </r>
        <r>  0.0005  0.0019  0.0002  0.0039  0.0000  0.0000  0.0000  0.0000  0.0000 </r>
        <r>  0.0122  0.0527  0.0021  0.0001  0.0000  0.0000  0.0000  0.0000  0.0000 </r>
        <r>  0.0005  0.0020  0.0001  0.0026  0.0000  0.0000  0.0000  0.0000  0.0000 </r>
       </set>
       <set comment="band 37">
        <r>  0.0001  0.0001  0.0025  0.0031  0.0000  0.0000  0.0000  0.0000  0.0000 </r>
        <r>  0.0002  0.0001  0.0066  0.0012  0.0000  0.0000  0.0000  0.0000  0.0000 </r>
        <r>  0.0001  0.0002  0.0027  0.0033  0.0000  0.0000  0.0000  0.0000  0.0000 </r>
        <r>  0.0004  0.0001  0.0083  0.0013  0.0000  0.0000  0.0000  0.0000  0.0000 </r>
        <r>  0.0036  0.0021  0.0864  0.0207  0.0000  0.0000  0.0000  0.0000  0.0000 </r>
        <r>  0.0018  0.0008  0.0459  0.0393  0.0000  0.0000  0.0000  0.0000  0.0000 </r>
        <r>  0.0038  0.0019  0.0888  0.0207  0.0000  0.0000  0.0000  0.0000  0.0000 </r>
        <r>  0.0019  0.0008  0.0469  0.0393  0.0000  0.0000  0.0000  0.0000  0.0000 </r>
        <r>  0.0002  0.0004  0.0050  0.0008  0.0000  0.0000  0.0000  0.0000  0.0000 </r>
        <r>  0.0001  0.0004  0.0013  0.0025  0.0000  0.0000  0.0000  0.0000  0.0000 </r>
        <r>  0.0003  0.0003  0.0052  0.0008  0.0000  0.0000  0.0000  0.0000  0.0000 </r>
        <r>  0.0002  0.0003  0.0018  0.0024  0.0000  0.0000  0.0000  0.0000  0.0000 </r>
       </set>
       <set comment="band 38">
        <r>  0.0011  0.0011  0.0194  0.0003  0.0000  0.0000  0.0000  0.0000  0.0000 </r>
        <r>  0.0001  0.0001  0.0006  0.0088  0.0000  0.0000  0.0000  0.0000  0.0000 </r>
        <r>  0.0010  0.0013  0.0186  0.0003  0.0000  0.0000  0.0000  0.0000  0.0000 </r>
        <r>  0.0000  0.0002  0.0005  0.0094  0.0000  0.0000  0.0000  0.0000  0.0000 </r>
        <r>  0.0016  0.0008  0.0374  0.0324  0.0000  0.0000  0.0000  0.0000  0.0000 </r>
        <r>  0.0033  0.0014  0.0756  0.0166  0.0000  0.0000  0.0000  0.0000  0.0000 </r>
        <r>  0.0015  0.0008  0.0368  0.0325  0.0000  0.0000  0.0000  0.0000  0.0000 </r>
        <r>  0.0028  0.0018  0.0692  0.0166  0.0000  0.0000  0.0000  0.0000  0.0000 </r>
        <r>  0.0009  0.0001  0.0190  0.0017  0.0000  0.0000  0.0000  0.0000  0.0000 </r>
        <r>  0.0002  0.0002  0.0040  0.0078  0.0000  0.0000  0.0000  0.0000  0.0000 </r>
        <r>  0.0006  0.0003  0.0159  0.0016  0.0000  0.0000  0.0000  0.0000  0.0000 </r>
        <r>  0.0002  0.0001  0.0034  0.0073  0.0000  0.0000  0.0000  0.0000  0.0000 </r>
       </set>
       <set comment="band 39">
        <r>  0.0020  0.0011  0.0433  0.0089  0.0000  0.0000  0.0000  0.0000  0.0000 </r>
        <r>  0.0010  0.0008  0.0199  0.0204  0.0000  0.0000  0.0000  0.0000  0.0000 </r>
        <r>  0.0020  0.0011  0.0492  0.0096  0.0000  0.0000  0.0000  0.0000  0.0000 </r>
        <r>  0.0012  0.0006  0.0203  0.0214  0.0000  0.0000  0.0000  0.0000  0.0000 </r>
        <r>  0.0000  0.0000  0.0000  0.0000  0.0000  0.0000  0.0000  0.0000  0.0000 </r>
        <r>  0.0000  0.0002  0.0002  0.0000  0.0000  0.0000  0.0000  0.0000  0.0000 </r>
        <r>  0.0000  0.0001  0.0001  0.0000  0.0000  0.0000  0.0000  0.0000  0.0000 </r>
        <r>  0.0000  0.0002  0.0001  0.0000  0.0000  0.0000  0.0000  0.0000  0.0000 </r>
        <r>  0.0007  0.0004  0.0203  0.0299  0.0000  0.0000  0.0000  0.0000  0.0000 </r>
        <r>  0.0032  0.0017  0.0662  0.0086  0.0000  0.0000  0.0000  0.0000  0.0000 </r>
        <r>  0.0008  0.0004  0.0173  0.0281  0.0000  0.0000  0.0000  0.0000  0.0000 </r>
        <r>  0.0029  0.0020  0.0613  0.0083  0.0000  0.0000  0.0000  0.0000  0.0000 </r>
       </set>
       <set comment="band 40">
        <r>  0.0000  0.0000  0.0007  0.0315  0.0000  0.0000  0.0000  0.0000  0.0000 </r>
        <r>  0.0030  0.0016  0.0666  0.0003  0.0000  0.0000  0.0000  0.0000  0.0000 </r>
        <r>  0.0000  0.0000  0.0009  0.0329  0.0000  0.0000  0.0000  0.0000  0.0000 </r>
        <r>  0.0030  0.0016  0.0765  0.0004  0.0000  0.0000  0.0000  0.0000  0.0000 </r>
        <r>  0.0000  0.0004  0.0003  0.0000  0.0000  0.0000  0.0000  0.0000  0.0000 </r>
        <r>  0.0000  0.0000  0.0000  0.0001  0.0000  0.0000  0.0000  0.0000  0.0000 </r>
        <r>  0.0000  0.0004  0.0002  0.0000  0.0000  0.0000  0.0000  0.0000  0.0000 </r>
        <r>  0.0000  0.0001  0.0001  0.0001  0.0000  0.0000  0.0000  0.0000  0.0000 </r>
        <r>  0.0010  0.0006  0.0234  0.0256  0.0000  0.0000  0.0000  0.0000  0.0000 </r>
        <r>  0.0023  0.0012  0.0600  0.0104  0.0000  0.0000  0.0000  0.0000  0.0000 </r>
        <r>  0.0010  0.0006  0.0211  0.0246  0.0000  0.0000  0.0000  0.0000  0.0000 </r>
        <r>  0.0023  0.0012  0.0516  0.0098  0.0000  0.0000  0.0000  0.0000  0.0000 </r>
       </set>
      </set>
     </set>
    </set>
   </array>
  </projected>
 </calculation>
 <structure name="finalpos" >
  <crystal>
   <varray name="basis" >
    <v>       3.34288600       0.00000000       0.00000000 </v>
    <v>       0.00000000      32.60240900       0.00000000 </v>
    <v>       0.00000000       0.00000000       4.37483100 </v>
   </varray>
   <i name="volume">    476.79592902 </i>
   <varray name="rec_basis" >
    <v>       0.29914272       0.00000000       0.00000000 </v>
    <v>       0.00000000       0.03067258       0.00000000 </v>
    <v>       0.00000000       0.00000000       0.22858026 </v>
   </varray>
  </crystal>
  <varray name="positions" >
   <v>       0.00000000       0.30672600       0.91892400 </v>
   <v>       0.50000000       0.30672600       0.58107600 </v>
   <v>       0.00000000       0.37246700       0.08107600 </v>
   <v>       0.50000000       0.37246700       0.41892400 </v>
   <v>       0.50000000       0.46712900       0.91892400 </v>
   <v>       0.00000000       0.46712900       0.58107600 </v>
   <v>       0.50000000       0.53287100       0.08107600 </v>
   <v>       0.00000000       0.53287100       0.41892400 </v>
   <v>       0.00000000       0.62753300       0.91892400 </v>
   <v>       0.50000000       0.62753300       0.58107600 </v>
   <v>       0.00000000       0.69327400       0.08107600 </v>
   <v>       0.50000000       0.69327400       0.41892400 </v>
  </varray>
 </structure>
</modeling>
