PROCAR lm decomposed
# of k-points:   16         # of bands:   40         # of ions:   12

 k-point     1 :    0.00000000 0.00000000 0.00000000     weight = 0.02380952

band     1 # energy  -14.95656780 # occ.  2.00000000
 
ion      s     py     pz     px    dxy    dyz    dz2    dxz  x2-y2    tot
    1  0.014  0.001  0.000  0.000  0.000  0.000  0.000  0.000  0.000  0.015
    2  0.014  0.001  0.000  0.000  0.000  0.000  0.000  0.000  0.000  0.015
    3  0.023  0.000  0.000  0.000  0.000  0.000  0.000  0.000  0.000  0.024
    4  0.023  0.000  0.000  0.000  0.000  0.000  0.000  0.000  0.000  0.024
    5  0.085  0.002  0.001  0.000  0.000  0.000  0.000  0.000  0.000  0.088
    6  0.085  0.002  0.001  0.000  0.000  0.000  0.000  0.000  0.000  0.088
    7  0.085  0.002  0.001  0.000  0.000  0.000  0.000  0.000  0.000  0.088
    8  0.085  0.002  0.001  0.000  0.000  0.000  0.000  0.000  0.000  0.088
    9  0.023  0.000  0.000  0.000  0.000  0.000  0.000  0.000  0.000  0.024
   10  0.023  0.000  0.000  0.000  0.000  0.000  0.000  0.000  0.000  0.024
   11  0.014  0.001  0.000  0.000  0.000  0.000  0.000  0.000  0.000  0.015
   12  0.014  0.001  0.000  0.000  0.000  0.000  0.000  0.000  0.000  0.015
tot    0.489  0.012  0.008  0.000  0.000  0.000  0.000  0.000  0.000  0.510
 
band     2 # energy  -14.77950883 # occ.  2.00000000
 
ion      s     py     pz     px    dxy    dyz    dz2    dxz  x2-y2    tot
    1  0.057  0.002  0.001  0.000  0.000  0.000  0.000  0.000  0.000  0.060
    2  0.057  0.002  0.001  0.000  0.000  0.000  0.000  0.000  0.000  0.060
    3  0.065  0.002  0.001  0.000  0.000  0.000  0.000  0.000  0.000  0.068
    4  0.065  0.002  0.001  0.000  0.000  0.000  0.000  0.000  0.000  0.068
    5  0.001  0.000  0.000  0.000  0.000  0.000  0.000  0.000  0.000  0.001
    6  0.001  0.000  0.000  0.000  0.000  0.000  0.000  0.000  0.000  0.001
    7  0.001  0.000  0.000  0.000  0.000  0.000  0.000  0.000  0.000  0.001
    8  0.001  0.000  0.000  0.000  0.000  0.000  0.000  0.000  0.000  0.001
    9  0.065  0.002  0.001  0.000  0.000  0.000  0.000  0.000  0.000  0.068
   10  0.065  0.002  0.001  0.000  0.000  0.000  0.000  0.000  0.000  0.068
   11  0.057  0.002  0.001  0.000  0.000  0.000  0.000  0.000  0.000  0.060
   12  0.057  0.002  0.001  0.000  0.000  0.000  0.000  0.000  0.000  0.060
tot    0.490  0.016  0.008  0.000  0.000  0.000  0.000  0.000  0.000  0.514
 
band     3 # energy  -14.68381529 # occ.  2.00000000
 
ion      s     py     pz     px    dxy    dyz    dz2    dxz  x2-y2    tot
    1  0.044  0.002  0.001  0.000  0.000  0.000  0.000  0.000  0.000  0.046
    2  0.044  0.002  0.001  0.000  0.000  0.000  0.000  0.000  0.000  0.046
    3  0.041  0.002  0.001  0.000  0.000  0.000  0.000  0.000  0.000  0.044
    4  0.041  0.002  0.001  0.000  0.000  0.000  0.000  0.000  0.000  0.044
    5  0.037  0.002  0.001  0.000  0.000  0.000  0.000  0.000  0.000  0.040
    6  0.037  0.002  0.001  0.000  0.000  0.000  0.000  0.000  0.000  0.040
    7  0.037  0.002  0.001  0.000  0.000  0.000  0.000  0.000  0.000  0.040
    8  0.037  0.002  0.001  0.000  0.000  0.000  0.000  0.000  0.000  0.040
    9  0.041  0.002  0.001  0.000  0.000  0.000  0.000  0.000  0.000  0.044
   10  0.041  0.002  0.001  0.000  0.000  0.000  0.000  0.000  0.000  0.044
   11  0.044  0.002  0.001  0.000  0.000  0.000  0.000  0.000  0.000  0.046
   12  0.044  0.002  0.001  0.000  0.000  0.000  0.000  0.000  0.000  0.046
tot    0.491  0.020  0.008  0.000  0.000  0.000  0.000  0.000  0.000  0.519
 
band     4 # energy  -12.56426573 # occ.  2.00000000
 
ion      s     py     pz     px    dxy    dyz    dz2    dxz  x2-y2    tot
    1  0.031  0.000  0.002  0.000  0.000  0.000  0.000  0.000  0.000  0.033
    2  0.031  0.000  0.002  0.000  0.000  0.000  0.000  0.000  0.000  0.033
    3  0.018  0.001  0.002  0.000  0.000  0.000  0.000  0.000  0.000  0.021
    4  0.018  0.001  0.002  0.000  0.000  0.000  0.000  0.000  0.000  0.021
    5  0.073  0.001  0.006  0.000  0.000  0.000  0.000  0.000  0.000  0.080
    6  0.073  0.001  0.006  0.000  0.000  0.000  0.000  0.000  0.000  0.080
    7  0.073  0.001  0.006  0.000  0.000  0.000  0.000  0.000  0.000  0.080
    8  0.073  0.001  0.006  0.000  0.000  0.000  0.000  0.000  0.000  0.080
    9  0.018  0.001  0.002  0.000  0.000  0.000  0.000  0.000  0.000  0.021
   10  0.018  0.001  0.002  0.000  0.000  0.000  0.000  0.000  0.000  0.021
   11  0.031  0.000  0.002  0.000  0.000  0.000  0.000  0.000  0.000  0.033
   12  0.031  0.000  0.002  0.000  0.000  0.000  0.000  0.000  0.000  0.033
tot    0.485  0.011  0.042  0.000  0.000  0.000  0.000  0.000  0.000  0.538
 
band     5 # energy  -12.18707811 # occ.  2.00000000
 
ion      s     py     pz     px    dxy    dyz    dz2    dxz  x2-y2    tot
    1  0.066  0.001  0.006  0.000  0.000  0.000  0.000  0.000  0.000  0.072
    2  0.066  0.001  0.006  0.000  0.000  0.000  0.000  0.000  0.000  0.072
    3  0.059  0.001  0.006  0.000  0.000  0.000  0.000  0.000  0.000  0.066
    4  0.059  0.001  0.006  0.000  0.000  0.000  0.000  0.000  0.000  0.066
    5  0.001  0.001  0.000  0.000  0.000  0.000  0.000  0.000  0.000  0.001
    6  0.001  0.001  0.000  0.000  0.000  0.000  0.000  0.000  0.000  0.001
    7  0.001  0.001  0.000  0.000  0.000  0.000  0.000  0.000  0.000  0.001
    8  0.001  0.001  0.000  0.000  0.000  0.000  0.000  0.000  0.000  0.001
    9  0.059  0.001  0.006  0.000  0.000  0.000  0.000  0.000  0.000  0.066
   10  0.059  0.001  0.006  0.000  0.000  0.000  0.000  0.000  0.000  0.066
   11  0.066  0.001  0.006  0.000  0.000  0.000  0.000  0.000  0.000  0.072
   12  0.066  0.001  0.006  0.000  0.000  0.000  0.000  0.000  0.000  0.072
tot    0.501  0.008  0.046  0.000  0.000  0.000  0.000  0.000  0.000  0.555
 
band     6 # energy  -11.93361321 # occ.  2.00000000
 
ion      s     py     pz     px    dxy    dyz    dz2    dxz  x2-y2    tot
    1  0.037  0.001  0.004  0.000  0.000  0.000  0.000  0.000  0.000  0.041
    2  0.037  0.001  0.004  0.000  0.000  0.000  0.000  0.000  0.000  0.041
    3  0.041  0.000  0.004  0.000  0.000  0.000  0.000  0.000  0.000  0.045
    4  0.041  0.000  0.004  0.000  0.000  0.000  0.000  0.000  0.000  0.045
    5  0.051  0.000  0.005  0.000  0.000  0.000  0.000  0.000  0.000  0.057
    6  0.051  0.000  0.005  0.000  0.000  0.000  0.000  0.000  0.000  0.057
    7  0.051  0.000  0.005  0.000  0.000  0.000  0.000  0.000  0.000  0.057
    8  0.051  0.000  0.005  0.000  0.000  0.000  0.000  0.000  0.000  0.057
    9  0.041  0.000  0.004  0.000  0.000  0.000  0.000  0.000  0.000  0.045
   10  0.041  0.000  0.004  0.000  0.000  0.000  0.000  0.000  0.000  0.045
   11  0.037  0.001  0.004  0.000  0.000  0.000  0.000  0.000  0.000  0.041
   12  0.037  0.001  0.004  0.000  0.000  0.000  0.000  0.000  0.000  0.041
tot    0.518  0.004  0.051  0.000  0.000  0.000  0.000  0.000  0.000  0.573
 
band     7 # energy   -8.68644495 # occ.  2.00000000
 
ion      s     py     pz     px    dxy    dyz    dz2    dxz  x2-y2    tot
    1  0.015  0.002  0.001  0.000  0.000  0.000  0.000  0.000  0.000  0.018
    2  0.015  0.002  0.001  0.000  0.000  0.000  0.000  0.000  0.000  0.018
    3  0.020  0.001  0.002  0.000  0.000  0.000  0.000  0.000  0.000  0.023
    4  0.020  0.001  0.002  0.000  0.000  0.000  0.000  0.000  0.000  0.023
    5  0.092  0.008  0.008  0.000  0.000  0.000  0.000  0.000  0.000  0.108
    6  0.092  0.008  0.008  0.000  0.000  0.000  0.000  0.000  0.000  0.108
    7  0.092  0.008  0.008  0.000  0.000  0.000  0.000  0.000  0.000  0.108
    8  0.092  0.008  0.008  0.000  0.000  0.000  0.000  0.000  0.000  0.108
    9  0.020  0.001  0.002  0.000  0.000  0.000  0.000  0.000  0.000  0.023
   10  0.020  0.001  0.002  0.000  0.000  0.000  0.000  0.000  0.000  0.023
   11  0.015  0.002  0.001  0.000  0.000  0.000  0.000  0.000  0.000  0.018
   12  0.015  0.002  0.001  0.000  0.000  0.000  0.000  0.000  0.000  0.018
tot    0.507  0.044  0.046  0.000  0.000  0.000  0.000  0.000  0.000  0.596
 
band     8 # energy   -8.55405648 # occ.  2.00000000
 
ion      s     py     pz     px    dxy    dyz    dz2    dxz  x2-y2    tot
    1  0.061  0.007  0.006  0.000  0.000  0.000  0.000  0.000  0.000  0.073
    2  0.061  0.007  0.006  0.000  0.000  0.000  0.000  0.000  0.000  0.073
    3  0.065  0.006  0.006  0.000  0.000  0.000  0.000  0.000  0.000  0.077
    4  0.065  0.006  0.006  0.000  0.000  0.000  0.000  0.000  0.000  0.077
    5  0.000  0.000  0.000  0.000  0.000  0.000  0.000  0.000  0.000  0.000
    6  0.000  0.000  0.000  0.000  0.000  0.000  0.000  0.000  0.000  0.000
    7  0.000  0.000  0.000  0.000  0.000  0.000  0.000  0.000  0.000  0.000
    8  0.000  0.000  0.000  0.000  0.000  0.000  0.000  0.000  0.000  0.000
    9  0.065  0.006  0.006  0.000  0.000  0.000  0.000  0.000  0.000  0.077
   10  0.065  0.006  0.006  0.000  0.000  0.000  0.000  0.000  0.000  0.077
   11  0.061  0.007  0.006  0.000  0.000  0.000  0.000  0.000  0.000  0.073
   12  0.061  0.007  0.006  0.000  0.000  0.000  0.000  0.000  0.000  0.073
tot    0.503  0.051  0.046  0.000  0.000  0.000  0.000  0.000  0.000  0.599
 
band     9 # energy   -8.49864222 # occ.  2.00000000
 
ion      s     py     pz     px    dxy    dyz    dz2    dxz  x2-y2    tot
    1  0.046  0.005  0.004  0.000  0.000  0.000  0.000  0.000  0.000  0.056
    2  0.046  0.005  0.004  0.000  0.000  0.000  0.000  0.000  0.000  0.056
    3  0.045  0.005  0.004  0.000  0.000  0.000  0.000  0.000  0.000  0.054
    4  0.045  0.005  0.004  0.000  0.000  0.000  0.000  0.000  0.000  0.054
    5  0.034  0.004  0.003  0.000  0.000  0.000  0.000  0.000  0.000  0.041
    6  0.034  0.004  0.003  0.000  0.000  0.000  0.000  0.000  0.000  0.041
    7  0.034  0.004  0.003  0.000  0.000  0.000  0.000  0.000  0.000  0.041
    8  0.034  0.004  0.003  0.000  0.000  0.000  0.000  0.000  0.000  0.041
    9  0.045  0.005  0.004  0.000  0.000  0.000  0.000  0.000  0.000  0.054
   10  0.045  0.005  0.004  0.000  0.000  0.000  0.000  0.000  0.000  0.054
   11  0.046  0.005  0.004  0.000  0.000  0.000  0.000  0.000  0.000  0.056
   12  0.046  0.005  0.004  0.000  0.000  0.000  0.000  0.000  0.000  0.056
tot    0.499  0.058  0.046  0.000  0.000  0.000  0.000  0.000  0.000  0.603
 
band    10 # energy   -6.30207231 # occ.  2.00000000
 
ion      s     py     pz     px    dxy    dyz    dz2    dxz  x2-y2    tot
    1  0.002  0.011  0.006  0.000  0.000  0.000  0.000  0.000  0.000  0.019
    2  0.002  0.011  0.006  0.000  0.000  0.000  0.000  0.000  0.000  0.019
    3  0.000  0.024  0.001  0.000  0.000  0.000  0.000  0.000  0.000  0.024
    4  0.000  0.024  0.001  0.000  0.000  0.000  0.000  0.000  0.000  0.024
    5  0.001  0.045  0.007  0.000  0.000  0.000  0.000  0.000  0.000  0.053
    6  0.001  0.045  0.007  0.000  0.000  0.000  0.000  0.000  0.000  0.053
    7  0.001  0.045  0.007  0.000  0.000  0.000  0.000  0.000  0.000  0.053
    8  0.001  0.045  0.007  0.000  0.000  0.000  0.000  0.000  0.000  0.053
    9  0.000  0.024  0.001  0.000  0.000  0.000  0.000  0.000  0.000  0.024
   10  0.000  0.024  0.001  0.000  0.000  0.000  0.000  0.000  0.000  0.024
   11  0.002  0.011  0.006  0.000  0.000  0.000  0.000  0.000  0.000  0.019
   12  0.002  0.011  0.006  0.000  0.000  0.000  0.000  0.000  0.000  0.019
tot    0.009  0.320  0.055  0.000  0.000  0.000  0.000  0.000  0.000  0.384
 
band    11 # energy   -5.60813314 # occ.  2.00000000
 
ion      s     py     pz     px    dxy    dyz    dz2    dxz  x2-y2    tot
    1  0.002  0.030  0.011  0.000  0.000  0.000  0.000  0.000  0.000  0.043
    2  0.002  0.030  0.011  0.000  0.000  0.000  0.000  0.000  0.000  0.043
    3  0.001  0.040  0.005  0.000  0.000  0.000  0.000  0.000  0.000  0.046
    4  0.001  0.040  0.005  0.000  0.000  0.000  0.000  0.000  0.000  0.046
    5  0.001  0.004  0.006  0.000  0.000  0.000  0.000  0.000  0.000  0.011
    6  0.001  0.004  0.006  0.000  0.000  0.000  0.000  0.000  0.000  0.011
    7  0.001  0.004  0.006  0.000  0.000  0.000  0.000  0.000  0.000  0.011
    8  0.001  0.004  0.006  0.000  0.000  0.000  0.000  0.000  0.000  0.011
    9  0.001  0.040  0.005  0.000  0.000  0.000  0.000  0.000  0.000  0.046
   10  0.001  0.040  0.005  0.000  0.000  0.000  0.000  0.000  0.000  0.046
   11  0.002  0.030  0.011  0.000  0.000  0.000  0.000  0.000  0.000  0.043
   12  0.002  0.030  0.011  0.000  0.000  0.000  0.000  0.000  0.000  0.043
tot    0.014  0.298  0.091  0.000  0.000  0.000  0.000  0.000  0.000  0.403
 
band    12 # energy   -4.87225213 # occ.  2.00000000
 
ion      s     py     pz     px    dxy    dyz    dz2    dxz  x2-y2    tot
    1  0.001  0.034  0.001  0.000  0.000  0.000  0.000  0.000  0.000  0.036
    2  0.001  0.034  0.001  0.000  0.000  0.000  0.000  0.000  0.000  0.036
    3  0.002  0.011  0.023  0.000  0.000  0.000  0.000  0.000  0.000  0.036
    4  0.002  0.011  0.023  0.000  0.000  0.000  0.000  0.000  0.000  0.036
    5  0.002  0.025  0.010  0.000  0.000  0.000  0.000  0.000  0.000  0.036
    6  0.002  0.025  0.010  0.000  0.000  0.000  0.000  0.000  0.000  0.036
    7  0.002  0.025  0.010  0.000  0.000  0.000  0.000  0.000  0.000  0.036
    8  0.002  0.025  0.010  0.000  0.000  0.000  0.000  0.000  0.000  0.036
    9  0.002  0.011  0.023  0.000  0.000  0.000  0.000  0.000  0.000  0.036
   10  0.002  0.011  0.023  0.000  0.000  0.000  0.000  0.000  0.000  0.036
   11  0.001  0.034  0.001  0.000  0.000  0.000  0.000  0.000  0.000  0.036
   12  0.001  0.034  0.001  0.000  0.000  0.000  0.000  0.000  0.000  0.036
tot    0.017  0.282  0.137  0.000  0.000  0.000  0.000  0.000  0.000  0.436
 
band    13 # energy   -4.78585606 # occ.  2.00000000
 
ion      s     py     pz     px    dxy    dyz    dz2    dxz  x2-y2    tot
    1  0.028  0.000  0.003  0.000  0.000  0.000  0.000  0.000  0.000  0.031
    2  0.028  0.000  0.003  0.000  0.000  0.000  0.000  0.000  0.000  0.031
    3  0.024  0.005  0.002  0.000  0.000  0.000  0.000  0.000  0.000  0.032
    4  0.024  0.005  0.002  0.000  0.000  0.000  0.000  0.000  0.000  0.032
    5  0.076  0.005  0.007  0.000  0.000  0.000  0.000  0.000  0.000  0.089
    6  0.076  0.005  0.007  0.000  0.000  0.000  0.000  0.000  0.000  0.089
    7  0.076  0.005  0.007  0.000  0.000  0.000  0.000  0.000  0.000  0.089
    8  0.076  0.005  0.007  0.000  0.000  0.000  0.000  0.000  0.000  0.089
    9  0.024  0.005  0.002  0.000  0.000  0.000  0.000  0.000  0.000  0.032
   10  0.024  0.005  0.002  0.000  0.000  0.000  0.000  0.000  0.000  0.032
   11  0.028  0.000  0.003  0.000  0.000  0.000  0.000  0.000  0.000  0.031
   12  0.028  0.000  0.003  0.000  0.000  0.000  0.000  0.000  0.000  0.031
tot    0.513  0.043  0.050  0.000  0.000  0.000  0.000  0.000  0.000  0.607
 
band    14 # energy   -4.60123844 # occ.  2.00000000
 
ion      s     py     pz     px    dxy    dyz    dz2    dxz  x2-y2    tot
    1  0.001  0.015  0.005  0.000  0.000  0.000  0.000  0.000  0.000  0.021
    2  0.001  0.015  0.005  0.000  0.000  0.000  0.000  0.000  0.000  0.021
    3  0.000  0.000  0.031  0.000  0.000  0.000  0.000  0.000  0.000  0.031
    4  0.000  0.000  0.031  0.000  0.000  0.000  0.000  0.000  0.000  0.031
    5  0.000  0.007  0.027  0.000  0.000  0.000  0.000  0.000  0.000  0.035
    6  0.000  0.007  0.027  0.000  0.000  0.000  0.000  0.000  0.000  0.035
    7  0.000  0.007  0.027  0.000  0.000  0.000  0.000  0.000  0.000  0.035
    8  0.000  0.007  0.027  0.000  0.000  0.000  0.000  0.000  0.000  0.035
    9  0.000  0.000  0.031  0.000  0.000  0.000  0.000  0.000  0.000  0.031
   10  0.000  0.000  0.031  0.000  0.000  0.000  0.000  0.000  0.000  0.031
   11  0.001  0.015  0.005  0.000  0.000  0.000  0.000  0.000  0.000  0.021
   12  0.001  0.015  0.005  0.000  0.000  0.000  0.000  0.000  0.000  0.021
tot    0.005  0.090  0.254  0.000  0.000  0.000  0.000  0.000  0.000  0.349
 
band    15 # energy   -4.27806583 # occ.  2.00000000
 
ion      s     py     pz     px    dxy    dyz    dz2    dxz  x2-y2    tot
    1  0.068  0.003  0.007  0.000  0.000  0.000  0.000  0.000  0.000  0.077
    2  0.068  0.003  0.007  0.000  0.000  0.000  0.000  0.000  0.000  0.077
    3  0.066  0.005  0.007  0.000  0.000  0.000  0.000  0.000  0.000  0.078
    4  0.066  0.005  0.007  0.000  0.000  0.000  0.000  0.000  0.000  0.078
    5  0.000  0.003  0.000  0.000  0.000  0.000  0.000  0.000  0.000  0.003
    6  0.000  0.003  0.000  0.000  0.000  0.000  0.000  0.000  0.000  0.003
    7  0.000  0.003  0.000  0.000  0.000  0.000  0.000  0.000  0.000  0.003
    8  0.000  0.003  0.000  0.000  0.000  0.000  0.000  0.000  0.000  0.003
    9  0.066  0.005  0.007  0.000  0.000  0.000  0.000  0.000  0.000  0.078
   10  0.066  0.005  0.007  0.000  0.000  0.000  0.000  0.000  0.000  0.078
   11  0.068  0.003  0.007  0.000  0.000  0.000  0.000  0.000  0.000  0.077
   12  0.068  0.003  0.007  0.000  0.000  0.000  0.000  0.000  0.000  0.077
tot    0.535  0.040  0.055  0.000  0.000  0.000  0.000  0.000  0.000  0.630
 
band    16 # energy   -4.21479319 # occ.  2.00000000
 
ion      s     py     pz     px    dxy    dyz    dz2    dxz  x2-y2    tot
    1  0.001  0.002  0.035  0.000  0.000  0.000  0.000  0.000  0.000  0.038
    2  0.001  0.002  0.035  0.000  0.000  0.000  0.000  0.000  0.000  0.038
    3  0.002  0.012  0.022  0.000  0.000  0.000  0.000  0.000  0.000  0.036
    4  0.002  0.012  0.022  0.000  0.000  0.000  0.000  0.000  0.000  0.036
    5  0.001  0.006  0.010  0.000  0.000  0.000  0.000  0.000  0.000  0.017
    6  0.001  0.006  0.010  0.000  0.000  0.000  0.000  0.000  0.000  0.017
    7  0.001  0.006  0.010  0.000  0.000  0.000  0.000  0.000  0.000  0.017
    8  0.001  0.006  0.010  0.000  0.000  0.000  0.000  0.000  0.000  0.017
    9  0.002  0.012  0.022  0.000  0.000  0.000  0.000  0.000  0.000  0.036
   10  0.002  0.012  0.022  0.000  0.000  0.000  0.000  0.000  0.000  0.036
   11  0.001  0.002  0.035  0.000  0.000  0.000  0.000  0.000  0.000  0.038
   12  0.001  0.002  0.035  0.000  0.000  0.000  0.000  0.000  0.000  0.038
tot    0.013  0.082  0.267  0.000  0.000  0.000  0.000  0.000  0.000  0.362
 
band    17 # energy   -3.98816456 # occ.  2.00000000
 
ion      s     py     pz     px    dxy    dyz    dz2    dxz  x2-y2    tot
    1  0.000  0.001  0.028  0.000  0.000  0.000  0.000  0.000  0.000  0.030
    2  0.000  0.001  0.028  0.000  0.000  0.000  0.000  0.000  0.000  0.030
    3  0.002  0.007  0.009  0.000  0.000  0.000  0.000  0.000  0.000  0.018
    4  0.002  0.007  0.009  0.000  0.000  0.000  0.000  0.000  0.000  0.018
    5  0.002  0.006  0.032  0.000  0.000  0.000  0.000  0.000  0.000  0.040
    6  0.002  0.006  0.032  0.000  0.000  0.000  0.000  0.000  0.000  0.040
    7  0.002  0.006  0.032  0.000  0.000  0.000  0.000  0.000  0.000  0.040
    8  0.002  0.006  0.032  0.000  0.000  0.000  0.000  0.000  0.000  0.040
    9  0.002  0.007  0.009  0.000  0.000  0.000  0.000  0.000  0.000  0.018
   10  0.002  0.007  0.009  0.000  0.000  0.000  0.000  0.000  0.000  0.018
   11  0.000  0.001  0.028  0.000  0.000  0.000  0.000  0.000  0.000  0.030
   12  0.000  0.001  0.028  0.000  0.000  0.000  0.000  0.000  0.000  0.030
tot    0.017  0.057  0.275  0.000  0.000  0.000  0.000  0.000  0.000  0.350
 
band    18 # energy   -3.82193175 # occ.  2.00000000
 
ion      s     py     pz     px    dxy    dyz    dz2    dxz  x2-y2    tot
    1  0.043  0.004  0.005  0.000  0.000  0.000  0.000  0.000  0.000  0.051
    2  0.043  0.004  0.005  0.000  0.000  0.000  0.000  0.000  0.000  0.051
    3  0.043  0.001  0.005  0.000  0.000  0.000  0.000  0.000  0.000  0.048
    4  0.043  0.001  0.005  0.000  0.000  0.000  0.000  0.000  0.000  0.048
    5  0.058  0.002  0.006  0.000  0.000  0.000  0.000  0.000  0.000  0.067
    6  0.058  0.002  0.006  0.000  0.000  0.000  0.000  0.000  0.000  0.067
    7  0.058  0.002  0.006  0.000  0.000  0.000  0.000  0.000  0.000  0.067
    8  0.058  0.002  0.006  0.000  0.000  0.000  0.000  0.000  0.000  0.067
    9  0.043  0.001  0.005  0.000  0.000  0.000  0.000  0.000  0.000  0.048
   10  0.043  0.001  0.005  0.000  0.000  0.000  0.000  0.000  0.000  0.048
   11  0.043  0.004  0.005  0.000  0.000  0.000  0.000  0.000  0.000  0.051
   12  0.043  0.004  0.005  0.000  0.000  0.000  0.000  0.000  0.000  0.051
tot    0.576  0.025  0.064  0.000  0.000  0.000  0.000  0.000  0.000  0.664
 
band    19 # energy   -3.49019414 # occ.  2.00000000
 
ion      s     py     pz     px    dxy    dyz    dz2    dxz  x2-y2    tot
    1  0.000  0.000  0.000  0.012  0.000  0.000  0.000  0.000  0.000  0.012
    2  0.000  0.000  0.000  0.012  0.000  0.000  0.000  0.000  0.000  0.012
    3  0.000  0.000  0.000  0.022  0.000  0.000  0.000  0.000  0.000  0.022
    4  0.000  0.000  0.000  0.022  0.000  0.000  0.000  0.000  0.000  0.022
    5  0.000  0.000  0.000  0.090  0.000  0.000  0.000  0.000  0.000  0.090
    6  0.000  0.000  0.000  0.090  0.000  0.000  0.000  0.000  0.000  0.090
    7  0.000  0.000  0.000  0.090  0.000  0.000  0.000  0.000  0.000  0.090
    8  0.000  0.000  0.000  0.090  0.000  0.000  0.000  0.000  0.000  0.090
    9  0.000  0.000  0.000  0.022  0.000  0.000  0.000  0.000  0.000  0.022
   10  0.000  0.000  0.000  0.022  0.000  0.000  0.000  0.000  0.000  0.022
   11  0.000  0.000  0.000  0.012  0.000  0.000  0.000  0.000  0.000  0.012
   12  0.000  0.000  0.000  0.012  0.000  0.000  0.000  0.000  0.000  0.012
tot    0.000  0.000  0.000  0.495  0.000  0.000  0.000  0.000  0.000  0.495
 
band    20 # energy   -3.33725536 # occ.  2.00000000
 
ion      s     py     pz     px    dxy    dyz    dz2    dxz  x2-y2    tot
    1  0.000  0.000  0.000  0.056  0.000  0.000  0.000  0.000  0.000  0.056
    2  0.000  0.000  0.000  0.056  0.000  0.000  0.000  0.000  0.000  0.056
    3  0.000  0.000  0.000  0.068  0.000  0.000  0.000  0.000  0.000  0.068
    4  0.000  0.000  0.000  0.068  0.000  0.000  0.000  0.000  0.000  0.068
    5  0.000  0.000  0.000  0.001  0.000  0.000  0.000  0.000  0.000  0.001
    6  0.000  0.000  0.000  0.001  0.000  0.000  0.000  0.000  0.000  0.001
    7  0.000  0.000  0.000  0.001  0.000  0.000  0.000  0.000  0.000  0.001
    8  0.000  0.000  0.000  0.001  0.000  0.000  0.000  0.000  0.000  0.001
    9  0.000  0.000  0.000  0.068  0.000  0.000  0.000  0.000  0.000  0.068
   10  0.000  0.000  0.000  0.068  0.000  0.000  0.000  0.000  0.000  0.068
   11  0.000  0.000  0.000  0.056  0.000  0.000  0.000  0.000  0.000  0.056
   12  0.000  0.000  0.000  0.056  0.000  0.000  0.000  0.000  0.000  0.056
tot    0.000  0.000  0.000  0.498  0.000  0.000  0.000  0.000  0.000  0.498
 
band    21 # energy   -3.26590061 # occ.  2.00000000
 
ion      s     py     pz     px    dxy    dyz    dz2    dxz  x2-y2    tot
    1  0.000  0.000  0.000  0.046  0.000  0.000  0.000  0.000  0.000  0.046
    2  0.000  0.000  0.000  0.046  0.000  0.000  0.000  0.000  0.000  0.046
    3  0.000  0.000  0.000  0.045  0.000  0.000  0.000  0.000  0.000  0.045
    4  0.000  0.000  0.000  0.045  0.000  0.000  0.000  0.000  0.000  0.045
    5  0.000  0.000  0.000  0.034  0.000  0.000  0.000  0.000  0.000  0.034
    6  0.000  0.000  0.000  0.034  0.000  0.000  0.000  0.000  0.000  0.034
    7  0.000  0.000  0.000  0.034  0.000  0.000  0.000  0.000  0.000  0.034
    8  0.000  0.000  0.000  0.034  0.000  0.000  0.000  0.000  0.000  0.034
    9  0.000  0.000  0.000  0.045  0.000  0.000  0.000  0.000  0.000  0.045
   10  0.000  0.000  0.000  0.045  0.000  0.000  0.000  0.000  0.000  0.045
   11  0.000  0.000  0.000  0.046  0.000  0.000  0.000  0.000  0.000  0.046
   12  0.000  0.000  0.000  0.046  0.000  0.000  0.000  0.000  0.000  0.046
tot    0.000  0.000  0.000  0.502  0.000  0.000  0.000  0.000  0.000  0.502
 
band    22 # energy   -2.07029207 # occ.  2.00000000
 
ion      s     py     pz     px    dxy    dyz    dz2    dxz  x2-y2    tot
    1  0.000  0.002  0.031  0.000  0.000  0.000  0.000  0.000  0.000  0.033
    2  0.000  0.002  0.031  0.000  0.000  0.000  0.000  0.000  0.000  0.033
    3  0.000  0.001  0.014  0.000  0.000  0.000  0.000  0.000  0.000  0.016
    4  0.000  0.001  0.014  0.000  0.000  0.000  0.000  0.000  0.000  0.016
    5  0.000  0.004  0.045  0.000  0.000  0.000  0.000  0.000  0.000  0.049
    6  0.000  0.004  0.045  0.000  0.000  0.000  0.000  0.000  0.000  0.049
    7  0.000  0.004  0.045  0.000  0.000  0.000  0.000  0.000  0.000  0.049
    8  0.000  0.004  0.045  0.000  0.000  0.000  0.000  0.000  0.000  0.049
    9  0.000  0.001  0.014  0.000  0.000  0.000  0.000  0.000  0.000  0.016
   10  0.000  0.001  0.014  0.000  0.000  0.000  0.000  0.000  0.000  0.016
   11  0.000  0.002  0.031  0.000  0.000  0.000  0.000  0.000  0.000  0.033
   12  0.000  0.002  0.031  0.000  0.000  0.000  0.000  0.000  0.000  0.033
tot    0.002  0.026  0.362  0.000  0.000  0.000  0.000  0.000  0.000  0.391
 
band    23 # energy   -1.86376414 # occ.  2.00000000
 
ion      s     py     pz     px    dxy    dyz    dz2    dxz  x2-y2    tot
    1  0.000  0.000  0.000  0.030  0.000  0.000  0.000  0.000  0.000  0.030
    2  0.000  0.000  0.000  0.030  0.000  0.000  0.000  0.000  0.000  0.030
    3  0.000  0.000  0.000  0.015  0.000  0.000  0.000  0.000  0.000  0.015
    4  0.000  0.000  0.000  0.015  0.000  0.000  0.000  0.000  0.000  0.015
    5  0.000  0.000  0.000  0.085  0.000  0.000  0.000  0.000  0.000  0.085
    6  0.000  0.000  0.000  0.085  0.000  0.000  0.000  0.000  0.000  0.085
    7  0.000  0.000  0.000  0.085  0.000  0.000  0.000  0.000  0.000  0.085
    8  0.000  0.000  0.000  0.085  0.000  0.000  0.000  0.000  0.000  0.085
    9  0.000  0.000  0.000  0.015  0.000  0.000  0.000  0.000  0.000  0.015
   10  0.000  0.000  0.000  0.015  0.000  0.000  0.000  0.000  0.000  0.015
   11  0.000  0.000  0.000  0.030  0.000  0.000  0.000  0.000  0.000  0.030
   12  0.000  0.000  0.000  0.030  0.000  0.000  0.000  0.000  0.000  0.030
tot    0.000  0.000  0.000  0.523  0.000  0.000  0.000  0.000  0.000  0.523
 
band    24 # energy   -1.63228416 # occ.  2.00000000
 
ion      s     py     pz     px    dxy    dyz    dz2    dxz  x2-y2    tot
    1  0.000  0.000  0.000  0.071  0.000  0.000  0.000  0.000  0.000  0.071
    2  0.000  0.000  0.000  0.071  0.000  0.000  0.000  0.000  0.000  0.071
    3  0.000  0.000  0.000  0.062  0.000  0.000  0.000  0.000  0.000  0.062
    4  0.000  0.000  0.000  0.062  0.000  0.000  0.000  0.000  0.000  0.062
    5  0.000  0.000  0.000  0.001  0.000  0.000  0.000  0.000  0.000  0.001
    6  0.000  0.000  0.000  0.001  0.000  0.000  0.000  0.000  0.000  0.001
    7  0.000  0.000  0.000  0.001  0.000  0.000  0.000  0.000  0.000  0.001
    8  0.000  0.000  0.000  0.001  0.000  0.000  0.000  0.000  0.000  0.001
    9  0.000  0.000  0.000  0.062  0.000  0.000  0.000  0.000  0.000  0.062
   10  0.000  0.000  0.000  0.062  0.000  0.000  0.000  0.000  0.000  0.062
   11  0.000  0.000  0.000  0.071  0.000  0.000  0.000  0.000  0.000  0.071
   12  0.000  0.000  0.000  0.071  0.000  0.000  0.000  0.000  0.000  0.071
tot    0.000  0.000  0.000  0.533  0.000  0.000  0.000  0.000  0.000  0.533
 
band    25 # energy   -1.52554014 # occ.  2.00000000
 
ion      s     py     pz     px    dxy    dyz    dz2    dxz  x2-y2    tot
    1  0.000  0.005  0.043  0.000  0.000  0.000  0.000  0.000  0.000  0.049
    2  0.000  0.005  0.043  0.000  0.000  0.000  0.000  0.000  0.000  0.049
    3  0.000  0.006  0.041  0.000  0.000  0.000  0.000  0.000  0.000  0.047
    4  0.000  0.006  0.041  0.000  0.000  0.000  0.000  0.000  0.000  0.047
    5  0.002  0.000  0.003  0.000  0.000  0.000  0.000  0.000  0.000  0.005
    6  0.002  0.000  0.003  0.000  0.000  0.000  0.000  0.000  0.000  0.005
    7  0.002  0.000  0.003  0.000  0.000  0.000  0.000  0.000  0.000  0.005
    8  0.002  0.000  0.003  0.000  0.000  0.000  0.000  0.000  0.000  0.005
    9  0.000  0.006  0.041  0.000  0.000  0.000  0.000  0.000  0.000  0.047
   10  0.000  0.006  0.041  0.000  0.000  0.000  0.000  0.000  0.000  0.047
   11  0.000  0.005  0.043  0.000  0.000  0.000  0.000  0.000  0.000  0.049
   12  0.000  0.005  0.043  0.000  0.000  0.000  0.000  0.000  0.000  0.049
tot    0.009  0.046  0.348  0.000  0.000  0.000  0.000  0.000  0.000  0.403
 
band    26 # energy   -1.51807503 # occ.  2.00000000
 
ion      s     py     pz     px    dxy    dyz    dz2    dxz  x2-y2    tot
    1  0.000  0.000  0.000  0.043  0.000  0.000  0.000  0.000  0.000  0.043
    2  0.000  0.000  0.000  0.043  0.000  0.000  0.000  0.000  0.000  0.043
    3  0.000  0.000  0.000  0.046  0.000  0.000  0.000  0.000  0.000  0.046
    4  0.000  0.000  0.000  0.046  0.000  0.000  0.000  0.000  0.000  0.046
    5  0.000  0.000  0.000  0.047  0.000  0.000  0.000  0.000  0.000  0.047
    6  0.000  0.000  0.000  0.047  0.000  0.000  0.000  0.000  0.000  0.047
    7  0.000  0.000  0.000  0.047  0.000  0.000  0.000  0.000  0.000  0.047
    8  0.000  0.000  0.000  0.047  0.000  0.000  0.000  0.000  0.000  0.047
    9  0.000  0.000  0.000  0.046  0.000  0.000  0.000  0.000  0.000  0.046
   10  0.000  0.000  0.000  0.046  0.000  0.000  0.000  0.000  0.000  0.046
   11  0.000  0.000  0.000  0.043  0.000  0.000  0.000  0.000  0.000  0.043
   12  0.000  0.000  0.000  0.043  0.000  0.000  0.000  0.000  0.000  0.043
tot    0.000  0.000  0.000  0.543  0.000  0.000  0.000  0.000  0.000  0.543
 
band    27 # energy   -0.89924824 # occ.  2.00000000
 
ion      s     py     pz     px    dxy    dyz    dz2    dxz  x2-y2    tot
    1  0.000  0.010  0.012  0.000  0.000  0.000  0.000  0.000  0.000  0.023
    2  0.000  0.010  0.012  0.000  0.000  0.000  0.000  0.000  0.000  0.023
    3  0.003  0.003  0.030  0.000  0.000  0.000  0.000  0.000  0.000  0.036
    4  0.003  0.003  0.030  0.000  0.000  0.000  0.000  0.000  0.000  0.036
    5  0.001  0.010  0.037  0.000  0.000  0.000  0.000  0.000  0.000  0.048
    6  0.001  0.010  0.037  0.000  0.000  0.000  0.000  0.000  0.000  0.048
    7  0.001  0.010  0.037  0.000  0.000  0.000  0.000  0.000  0.000  0.048
    8  0.001  0.010  0.037  0.000  0.000  0.000  0.000  0.000  0.000  0.048