<?xml version="1.0" encoding="ISO-8859-1"?>
<modeling>
 <generator>
  <i name="program" type="string">vasp </i>
  <i name="version" type="string">5.4.4.18Apr17-6-g9f103f2a35  </i>
  <i name="subversion" type="string">(build Jun 20 2017 18:00:50) complex            parallel </i>
  <i name="platform" type="string">LinuxIFC </i>
  <i name="date" type="string">2018 03 16 </i>
  <i name="time" type="string">15:56:25 </i>
 </generator>
 <incar>
  <i type="string" name="SYSTEM"> Generic Input</i>
  <i type="int" name="ISTART">     1</i>
  <i type="string" name="PREC">normal    ! precision level</i>
  <i type="int" name="IALGO">    53</i>
  <i type="string" name="ALGO"> Normal    ! SCF minimisation algorithm</i>
  <i type="int" name="INIWAV">     1</i>
  <i type="int" name="NELM">   200</i>
  <i type="int" name="NELMIN">     2</i>
  <i type="int" name="IBRION">     2</i>
  <i name="EDIFF">      0.00001000</i>
  <i name="EDIFFG">     -0.02000000</i>
  <i type="int" name="NSW">     0</i>
  <i type="int" name="ISIF">     3</i>
  <i type="int" name="IWAVPR">    11</i>
  <i type="int" name="NBLOCK">     1</i>
  <i type="int" name="KBLOCK">    40</i>
  <i name="ENCUT">    400.00000000</i>
  <i type="int" name="NEDOS">  2000</i>
  <i type="int" name="ISMEAR">     0</i>
  <i name="SIGMA">      0.01000000</i>
  <i type="int" name="NWRITE">     2</i>
  <i type="logical" name="LVHAR"> T  </i>
  <i type="int" name="LORBIT">    11</i>
  <i type="logical" name="LASPH"> T  </i>
  <i type="int" name="ICORELEVEL">     1</i>
  <v type="int" name="KPOINT_BSE">    -1     0     0     0</v>
  <i type="int" name="NELM">   200</i>
  <i type="string" name="GGA"> PE        ! PBEsol exchange-correlation</i>
  <i type="logical" name="LASPH"> T  </i>
 </incar>
 <structure name="primitive_cell" >
  <crystal>
   <varray name="basis" >
    <v>       3.34288600       0.00000000       0.00000000 </v>
    <v>       0.00000000      32.60240900       0.00000000 </v>
    <v>       0.00000000       0.00000000       4.37483100 </v>
   </varray>
   <i name="volume">    476.79592902 </i>
   <varray name="rec_basis" >
    <v>       0.29914272       0.00000000       0.00000000 </v>
    <v>       0.00000000       0.03067258       0.00000000 </v>
    <v>       0.00000000       0.00000000       0.22858026 </v>
   </varray>
  </crystal>
  <varray name="positions" >
   <v>       0.00000000       0.30672600      -0.08107600 </v>
   <v>      -0.50000000       0.30672600      -0.41892400 </v>
   <v>       0.00000000       0.37246700       0.08107600 </v>
   <v>      -0.50000000       0.37246700       0.41892400 </v>
   <v>       0.00000000       0.46712900      -0.41892400 </v>
   <v>      -0.50000000       0.46712900      -0.08107600 </v>
   <v>      -0.50000000      -0.46712900       0.08107600 </v>
   <v>       0.00000000      -0.46712900       0.41892400 </v>
   <v>       0.00000000      -0.37246700      -0.08107600 </v>
   <v>      -0.50000000      -0.37246700      -0.41892400 </v>
   <v>       0.00000000      -0.30672600       0.08107600 </v>
   <v>      -0.50000000      -0.30672600       0.41892400 </v>
  </varray>
 </structure>
 <varray name="primitive_index" >
  <v type="int" >        1 </v>
  <v type="int" >        2 </v>
  <v type="int" >        3 </v>
  <v type="int" >        4 </v>
  <v type="int" >        6 </v>
  <v type="int" >        5 </v>
  <v type="int" >        7 </v>
  <v type="int" >        8 </v>
  <v type="int" >        9 </v>
  <v type="int" >       10 </v>
  <v type="int" >       11 </v>
  <v type="int" >       12 </v>
 </varray>
 <kpoints>
  <generation param="Gamma">
   <v type="int" name="divisions">       4        1        4 </v>
   <v name="usershift">      0.00000000       0.00000000       0.00000000 </v>
   <v name="genvec1">      0.25000000       0.00000000       0.00000000 </v>
   <v name="genvec2">      0.00000000       1.00000000       0.00000000 </v>
   <v name="genvec3">      0.00000000       0.00000000       0.25000000 </v>
   <v name="shift">      0.00000000       0.00000000       0.00000000 </v>
  </generation>
  <varray name="kpointlist" >
   <v>       0.00000000       0.00000000       0.00000000 </v>
   <v>       0.25000000       0.00000000       0.00000000 </v>
   <v>       0.50000000       0.00000000       0.00000000 </v>
   <v>       0.00000000       0.00000000       0.25000000 </v>
   <v>       0.25000000       0.00000000       0.25000000 </v>
   <v>       0.50000000       0.00000000       0.25000000 </v>
   <v>       0.00000000       0.00000000       0.50000000 </v>
   <v>       0.25000000       0.00000000       0.50000000 </v>
   <v>       0.50000000       0.00000000       0.50000000 </v>
  </varray>
  <varray name="weights" >
   <v>       0.06250000 </v>
   <v>       0.12500000 </v>
   <v>       0.06250000 </v>
   <v>       0.12500000 </v>
   <v>       0.25000000 </v>
   <v>       0.12500000 </v>
   <v>       0.06250000 </v>
   <v>       0.12500000 </v>
   <v>       0.06250000 </v>
  </varray>
 </kpoints>
 <parameters>
  <separator name="general" >
   <i type="string" name="SYSTEM">Generic Input</i>
   <i type="logical" name="LCOMPAT"> F  </i>
  </separator>
  <separator name="electronic" >
   <i type="string" name="PREC">normal</i>
   <i name="ENMAX">    400.00000000</i>
   <i name="ENAUG">    342.92400000</i>
   <i name="EDIFF">      0.00001000</i>
   <i type="int" name="IALGO">    38</i>
   <i type="int" name="IWAVPR">    11</i>
   <i type="int" name="NBANDS">    40</i>
   <i name="NELECT">     60.00000000</i>
   <i type="int" name="TURBO">     0</i>
   <i type="int" name="IRESTART">     0</i>
   <i type="int" name="NREBOOT">     0</i>
   <i type="int" name="NMIN">     0</i>
   <i name="EREF">      0.00000000</i>
   <separator name="electronic smearing" >
    <i type="int" name="ISMEAR">     0</i>
    <i name="SIGMA">      0.01000000</i>
    <i name="KSPACING">      0.50000000</i>
    <i type="logical" name="KGAMMA"> T  </i>
   </separator>
   <separator name="electronic projectors" >
    <i type="logical" name="LREAL"> F  </i>
    <v name="ROPT">      0.00000000</v>
    <i type="int" name="LMAXPAW">  -100</i>
    <i type="int" name="LMAXMIX">     2</i>
    <i type="logical" name="NLSPLINE"> F  </i>
   </separator>
   <separator name="electronic startup" >
    <i type="int" name="ISTART">     0</i>
    <i type="int" name="ICHARG">     2</i>
    <i type="int" name="INIWAV">     1</i>
   </separator>
   <separator name="electronic spin" >
    <i type="int" name="ISPIN">     1</i>
    <i type="logical" name="LNONCOLLINEAR"> F  </i>
    <v name="MAGMOM">      1.00000000      1.00000000      1.00000000      1.00000000      1.00000000      1.00000000      1.00000000      1.00000000      1.00000000      1.00000000      1.00000000      1.00000000</v>
    <i name="NUPDOWN">     -1.00000000</i>
    <i type="logical" name="LSORBIT"> F  </i>
    <v name="SAXIS">      0.00000000      0.00000000      1.00000000</v>
    <i type="logical" name="LSPIRAL"> F  </i>
    <v name="QSPIRAL">      0.00000000      0.00000000      0.00000000</v>
    <i type="logical" name="LZEROZ"> F  </i>
   </separator>
   <separator name="electronic exchange-correlation" >
    <i type="logical" name="LASPH"> T  </i>
    <i type="logical" name="LMETAGGA"> F  </i>
   </separator>
   <separator name="electronic convergence" >
    <i type="int" name="NELM">   200</i>
    <i type="int" name="NELMDL">     0</i>
    <i type="int" name="NELMIN">     2</i>
    <i name="ENINI">    400.00000000</i>
    <separator name="electronic convergence detail" >
     <i type="logical" name="LDIAG"> T  </i>
     <i type="logical" name="LSUBROT"> F  </i>
     <i name="WEIMIN">      0.00000000</i>
     <i name="EBREAK">      0.00000006</i>
     <i name="DEPER">      0.30000000</i>
     <i type="int" name="NRMM">     4</i>
     <i name="TIME">      0.40000000</i>
    </separator>
   </separator>
   <separator name="electronic mixer" >
    <i name="AMIX">      0.40000000</i>
    <i name="BMIX">      1.00000000</i>
    <i name="AMIN">      0.10000000</i>
    <i name="AMIX_MAG">      1.60000000</i>
    <i name="BMIX_MAG">      1.00000000</i>
    <separator name="electronic mixer details" >
     <i type="int" name="IMIX">     4</i>
     <i type="logical" name="MIXFIRST"> F  </i>
     <i type="int" name="MAXMIX">   -45</i>
     <i name="WC">    100.00000000</i>
     <i type="int" name="INIMIX">     1</i>
     <i type="int" name="MIXPRE">     1</i>
     <i type="int" name="MREMOVE">     5</i>
    </separator>
   </separator>
   <separator name="electronic dipolcorrection" >
    <i type="logical" name="LDIPOL"> F  </i>
    <i type="logical" name="LMONO"> F  </i>
    <i type="int" name="IDIPOL">     0</i>
    <i name="EPSILON">      1.00000000</i>
    <v name="DIPOL">   -100.00000000   -100.00000000   -100.00000000</v>
    <i name="EFIELD">      0.00000000</i>
   </separator>
  </separator>
  <separator name="grids" >
   <i type="int" name="NGX">    16</i>
   <i type="int" name="NGY">   160</i>
   <i type="int" name="NGZ">    24</i>
   <i type="int" name="NGXF">    32</i>
   <i type="int" name="NGYF">   320</i>
   <i type="int" name="NGZF">    48</i>
   <i type="logical" name="ADDGRID"> F  </i>
  </separator>
  <separator name="ionic" >
   <i type="int" name="NSW">     0</i>
   <i type="int" name="IBRION">    -1</i>
   <i type="int" name="MDALGO">     0</i>
   <i type="int" name="ISIF">     3</i>
   <i name="PSTRESS">      0.00000000</i>
   <i name="EDIFFG">     -0.02000000</i>
   <i type="int" name="NFREE">     1</i>
   <i name="POTIM">      0.50000000</i>
   <i name="SMASS">     -3.00000000</i>
   <i name="SCALEE">      1.00000000</i>
  </separator>
  <separator name="ionic md" >
   <i name="TEBEG">      0.00010000</i>
   <i name="TEEND">      0.00010000</i>
   <i type="int" name="NBLOCK">     1</i>
   <i type="int" name="KBLOCK">     1</i>
   <i type="int" name="NPACO">   256</i>
   <i name="APACO">     16.00000000</i>
  </separator>
  <separator name="symmetry" >
   <i type="int" name="ISYM">     2</i>
   <i name="SYMPREC">      0.00001000</i>
  </separator>
  <separator name="dos" >
   <i type="int" name="LORBIT">    11</i>
   <v name="RWIGS">     -1.00000000</v>
   <i type="int" name="NEDOS">  2000</i>
   <i name="EMIN">     10.00000000</i>
   <i name="EMAX">    -10.00000000</i>
   <i name="EFERMI">      0.00000000</i>
  </separator>
  <separator name="writing" >
   <i type="int" name="NWRITE">     2</i>
   <i type="logical" name="LWAVE"> T  </i>
   <i type="logical" name="LDOWNSAMPLE"> F  </i>
   <i type="logical" name="LCHARG"> T  </i>
   <i type="logical" name="LPARD"> F  </i>
   <i type="logical" name="LVTOT"> F  </i>
   <i type="logical" name="LVHAR"> T  </i>
   <i type="logical" name="LELF"> F  </i>
   <i type="logical" name="LOPTICS"> F  </i>
   <v name="STM">      0.00000000      0.00000000      0.00000000      0.00000000      0.00000000      0.00000000      0.00000000</v>
  </separator>
  <separator name="performance" >
   <i type="int" name="NPAR">     4</i>
   <i type="int" name="NSIM">     4</i>
   <i type="int" name="NBLK">    -1</i>
   <i type="logical" name="LPLANE"> T  </i>
   <i type="logical" name="LSCALAPACK"> T  </i>
   <i type="logical" name="LSCAAWARE"> F  </i>
   <i type="logical" name="LSCALU"> F  </i>
   <i type="logical" name="LASYNC"> F  </i>
   <i type="logical" name="LORBITALREAL"> F  </i>
  </separator>
  <separator name="miscellaneous" >
   <i type="int" name="IDIOT">     3</i>
   <i type="int" name="ISPECIAL">     0</i>
   <i type="logical" name="LMUSIC"> F  </i>
   <v name="POMASS">     30.97400000</v>
   <v name="DARWINR">      0.00000000</v>
   <v name="DARWINV">      1.00000000</v>
   <i type="logical" name="LCORR"> T  </i>
  </separator>
  <i type="logical" name="GGA_COMPAT"> T  </i>
  <i type="logical" name="LBERRY"> F  </i>
  <i type="int" name="ICORELEVEL">     1</i>
  <i type="int" name="CLNT">     1</i>
  <i type="int" name="CLN">     1</i>
  <i type="int" name="CLL">     0</i>
  <i name="CLZ">      0.00000000</i>
  <i type="logical" name="LDAU"> F  </i>
  <i type="int" name="I_CONSTRAINED_M">     0</i>
  <separator name="electronic exchange-correlation" >
   <i type="string" name="GGA">PE</i>
   <i type="int" name="VOSKOWN">     0</i>
   <i type="logical" name="LHFCALC"> F  </i>
   <i type="string" name="PRECFOCK"></i>
   <i type="logical" name="LSYMGRAD"> F  </i>
   <i type="logical" name="LHFONE"> F  </i>
   <i type="logical" name="LRHFCALC"> F  </i>
   <i type="logical" name="LTHOMAS"> F  </i>
   <i type="logical" name="LMODELHF"> F  </i>
   <i name="ENCUT4O">     -1.00000000</i>
   <i type="int" name="EXXOEP">     0</i>
   <i type="int" name="FOURORBIT">     0</i>
   <i name="AEXX">      0.00000000</i>
   <i name="HFALPHA">      0.00000000</i>
   <i name="MCALPHA">      0.00000000</i>
   <i name="ALDAX">      1.00000000</i>
   <i name="AGGAX">      1.00000000</i>
   <i name="ALDAC">      1.00000000</i>
   <i name="AGGAC">      1.00000000</i>
   <i type="int" name="NKREDX">     1</i>
   <i type="int" name="NKREDY">     1</i>
   <i type="int" name="NKREDZ">     1</i>
   <i type="logical" name="SHIFTRED"> F  </i>
   <i type="logical" name="ODDONLY"> F  </i>
   <i type="logical" name="EVENONLY"> F  </i>
   <i type="int" name="LMAXFOCK">     0</i>
   <i type="int" name="NMAXFOCKAE">     0</i>
   <i type="logical" name="LFOCKAEDFT"> F  </i>
   <i name="HFSCREEN">      0.00000000</i>
   <i name="HFSCREENC">      0.00000000</i>
   <i type="int" name="NBANDSGWLOW">     0</i>
  </separator>
  <separator name="vdW DFT" >
   <i type="logical" name="LUSE_VDW"> F  </i>
   <i name="Zab_VDW">     -0.84910000</i>
   <i name="PARAM1">      0.12340000</i>
   <i name="PARAM2">      1.00000000</i>
   <i name="PARAM3">      0.00000000</i>
  </separator>
  <separator name="model GW" >
   <i type="int" name="MODEL_GW">     0</i>
   <i name="MODEL_EPS0">     23.83979645</i>
   <i name="MODEL_ALPHA">      1.00000000</i>
  </separator>
  <separator name="linear response parameters" >
   <i type="logical" name="LEPSILON"> F  </i>
   <i type="logical" name="LRPA"> F  </i>
   <i type="logical" name="LNABLA"> F  </i>
   <i type="logical" name="LVEL"> F  </i>
   <i type="int" name="KINTER">     0</i>
   <i name="CSHIFT">      0.10000000</i>
   <i name="OMEGAMAX">     -1.00000000</i>
   <i name="DEG_THRESHOLD">      0.00200000</i>
   <i name="RTIME">     -0.10000000</i>
   <i name="WPLASMAI">      0.00000000</i>
   <v name="DFIELD">      0.00000000      0.00000000      0.00000000</v>
   <v name="WPLASMA">      0.00000000      0.00000000      0.00000000      0.00000000      0.00000000      0.00000000      0.00000000      0.00000000      0.00000000</v>
  </separator>
  <separator name="orbital magnetization" >
   <i type="logical" name="NUCIND"> F  </i>
   <v name="MAGPOS">      0.00000000      0.00000000      0.00000000</v>
   <i type="logical" name="LNICSALL"> T  </i>
   <i type="logical" name="ORBITALMAG"> F  </i>
   <i type="logical" name="LMAGBLOCH"> F  </i>
   <i type="logical" name="LCHIMAG"> F  </i>
   <i type="logical" name="LGAUGE"> T  </i>
   <i type="int" name="MAGATOM">     0</i>
   <v name="MAGDIPOL">      0.00000000      0.00000000      0.00000000</v>
   <v name="AVECCONST">      0.00000000      0.00000000      0.00000000</v>
  </separator>
  <separator name="response functions" >
   <i type="logical" name="LADDER"> F  </i>
   <i type="logical" name="LRPAFORCE"> F  </i>
   <i type="logical" name="LFXC"> F  </i>
   <i type="logical" name="LHARTREE"> T  </i>
   <i type="int" name="IBSE">     0</i>
   <v type="int" name="KPOINT">    -1     0     0     0</v>
   <i type="logical" name="LTCTE"> F  </i>
   <i type="logical" name="LTETE"> F  </i>
   <i type="logical" name="LTRIPLET"> F  </i>
   <i type="logical" name="LFXCEPS"> F  </i>
   <i type="logical" name="LFXHEG"> F  </i>
   <i type="int" name="NATURALO">     2</i>
   <i type="logical" name="L2ORDER"> F  </i>
   <i type="logical" name="LMP2LT"> F  </i>
   <i type="logical" name="LUSEW"> F  </i>
   <i name="ENCUTGW">     -2.00000000</i>
   <i name="ENCUTGWSOFT">     -2.00000000</i>
   <i name="ENCUTLF">     -1.00000000</i>
   <i type="int" name="LMAXMP2">    -1</i>
   <i name="SCISSOR">      0.00000000</i>
   <i type="int" name="NOMEGA">     0</i>
   <i type="int" name="NOMEGAR">     0</i>
   <i type="int" name="NBANDSGW">    -1</i>
   <i type="int" name="NBANDSO">    -1</i>
   <i type="int" name="NBANDSV">    -1</i>
   <i type="int" name="NELM">   200</i>
   <i type="int" name="NELMHF">     1</i>
   <i type="int" name="DIM">     3</i>
   <i type="int" name="ANTIRES">     0</i>
   <i name="OMEGAMAX">    -30.00000000</i>
   <i name="OMEGAMIN">    -30.00000000</i>
   <i name="OMEGATL">   -200.00000000</i>
   <i type="int" name="OMEGAGRID">   140</i>
   <i name="CSHIFT">     -0.10000000</i>
   <i type="logical" name="SELFENERGY"> F  </i>
   <i type="logical" name="LSPECTRAL"> F  </i>
   <i type="logical" name="LSPECTRALGW"> F  </i>
   <i type="logical" name="LSINGLES"> F  </i>
   <i type="logical" name="LFERMIGW"> F  </i>
   <i type="logical" name="ODDONLYGW"> F  </i>
   <i type="logical" name="EVENONLYGW"> F  </i>
   <i type="int" name="NKREDLFX">     1</i>
   <i type="int" name="NKREDLFY">     1</i>
   <i type="int" name="NKREDLFZ">     1</i>
   <i type="int" name="MAXMEM">  2800</i>
   <i type="int" name="TELESCOPE">     0</i>
   <i type="int" name="TAUPAR">     1</i>
   <i type="int" name="OMEGAPAR">    -1</i>
   <i name="LAMBDA">      1.00000000</i>
  </separator>
  <separator name="External order field" >
   <i name="OFIELD_KAPPA">      0.00000000</i>
   <v name="OFIELD_K">      0.00000000      0.00000000      0.00000000</v>
   <i name="OFIELD_Q6_NEAR">      0.00000000</i>
   <i name="OFIELD_Q6_FAR">      0.00000000</i>
   <i name="OFIELD_A">      0.00000000</i>
  </separator>
 </parameters>
 <atominfo>
  <atoms>      12 </atoms>
  <types>       1 </types>
  <array name="atoms" >
   <dimension dim="1">ion</dimension>
   <field type="string">element</field>
   <field type="int">atomtype</field>
   <set>
    <rc><c>P </c><c>   1</c></rc>
    <rc><c>P </c><c>   1</c></rc>
    <rc><c>P </c><c>   1</c></rc>
    <rc><c>P </c><c>   1</c></rc>
    <rc><c>P </c><c>   1</c></rc>
    <rc><c>P </c><c>   1</c></rc>
    <rc><c>P </c><c>   1</c></rc>
    <rc><c>P </c><c>   1</c></rc>
    <rc><c>P </c><c>   1</c></rc>
    <rc><c>P </c><c>   1</c></rc>
    <rc><c>P </c><c>   1</c></rc>
    <rc><c>P </c><c>   1</c></rc>
   </set>
  </array>
  <array name="atomtypes" >
   <dimension dim="1">type</dimension>
   <field type="int">atomspertype</field>
   <field type="string">element</field>
   <field>mass</field>
   <field>valence</field>
   <field type="string">pseudopotential</field>
   <set>
    <rc><c>  12</c><c>P </c><c>     30.97400000</c><c>      5.00000000</c><c>  PAW_PBE P 06Sep2000                   </c></rc>
   </set>
  </array>
 </atominfo>
 <structure name="initialpos" >
  <crystal>
   <varray name="basis" >
    <v>       3.34288600       0.00000000       0.00000000 </v>
    <v>       0.00000000      32.60240900       0.00000000 </v>
    <v>       0.00000000       0.00000000       4.37483100 </v>
   </varray>
   <i name="volume">    476.79592902 </i>
   <varray name="rec_basis" >
    <v>       0.29914272       0.00000000       0.00000000 </v>
    <v>       0.00000000       0.03067258       0.00000000 </v>
    <v>       0.00000000       0.00000000       0.22858026 </v>
   </varray>
  </crystal>
  <varray name="positions" >
   <v>       0.00000000       0.30672600       0.91892400 </v>
   <v>       0.50000000       0.30672600       0.58107600 </v>
   <v>       0.00000000       0.37246700       0.08107600 </v>
   <v>       0.50000000       0.37246700       0.41892400 </v>
   <v>       0.50000000       0.46712900       0.91892400 </v>
   <v>       0.00000000       0.46712900       0.58107600 </v>
   <v>       0.50000000       0.53287100       0.08107600 </v>
   <v>       0.00000000       0.53287100       0.41892400 </v>
   <v>       0.00000000       0.62753300       0.91892400 </v>
   <v>       0.50000000       0.62753300       0.58107600 </v>
   <v>       0.00000000       0.69327400       0.08107600 </v>
   <v>       0.50000000       0.69327400       0.41892400 </v>
  </varray>
 </structure>
 <calculation>
  <scstep>
   <time name="dav">    0.40    0.41</time>
   <time name="total">    0.50    0.51</time>
   <energy>
    <i name="alphaZ">     30.28014394 </i>
    <i name="ewald">  14973.24208224 </i>
    <i name="hartreedc"> -16928.93300519 </i>
    <i name="XCdc">     40.33410248 </i>
    <i name="pawpsdc">   1677.12035881 </i>
    <i name="pawaedc">  -1579.18296132 </i>
    <i name="eentropy">     -0.00000000 </i>
    <i name="bandstr">     16.30757940 </i>
    <i name="atom">   2112.48864025 </i>
    <i name="e_fr_energy">    341.65694060 </i>
    <i name="e_wo_entrp">    341.65694060 </i>
    <i name="e_0_energy">    341.65694060 </i>
   </energy>
  </scstep>
  <scstep>
   <time name="dav">    0.48    0.48</time>
   <time name="total">    0.48    0.48</time>
   <energy>
    <i name="e_fr_energy">    -25.17839133 </i>
    <i name="e_wo_entrp">    -25.17839133 </i>
    <i name="e_0_energy">    -25.17839133 </i>
   </energy>
  </scstep>
  <scstep>
   <time name="dav">    0.43    0.43</time>
   <time name="total">    0.43    0.43</time>
   <energy>
    <i name="e_fr_energy">    -63.20972331 </i>
    <i name="e_wo_entrp">    -63.20972331 </i>
    <i name="e_0_energy">    -63.20972331 </i>
   </energy>
  </scstep>
  <scstep>
   <time name="dav">    0.49    0.49</time>
   <time name="total">    0.49    0.49</time>
   <energy>
    <i name="e_fr_energy">    -64.64598149 </i>
    <i name="e_wo_entrp">    -64.64598149 </i>
    <i name="e_0_energy">    -64.64598149 </i>
   </energy>
  </scstep>
  <scstep>
   <time name="dav">    0.51    0.51</time>
   <time name="total">    0.53    0.54</time>
   <energy>
    <i name="e_fr_energy">    -64.68795301 </i>
    <i name="e_wo_entrp">    -64.68795301 </i>
    <i name="e_0_energy">    -64.68795301 </i>
   </energy>
  </scstep>
  <scstep>
   <time name="dav">    0.45    0.45</time>
   <time name="total">    0.55    0.56</time>
   <energy>
    <i name="e_fr_energy">    -64.35849650 </i>
    <i name="e_wo_entrp">    -64.35849650 </i>
    <i name="e_0_energy">    -64.35849650 </i>
   </energy>
  </scstep>
  <scstep>
   <time name="dav">    0.46    0.46</time>
   <time name="total">    0.56    0.56</time>
   <energy>
    <i name="e_fr_energy">    -64.20859604 </i>
    <i name="e_wo_entrp">    -64.20859561 </i>
    <i name="e_0_energy">    -64.20859582 </i>
   </energy>
  </scstep>
  <scstep>
   <time name="dav">    0.48    0.48</time>
   <time name="total">    0.58    0.58</time>
   <energy>
    <i name="e_fr_energy">    -64.20826277 </i>
    <i name="e_wo_entrp">    -64.20826265 </i>
    <i name="e_0_energy">    -64.20826271 </i>
   </energy>
  </scstep>
  <scstep>
   <time name="dav">    0.51    0.51</time>
   <time name="total">    0.61    0.61</time>
   <energy>
    <i name="e_fr_energy">    -64.20822815 </i>
    <i name="e_wo_entrp">    -64.20822804 </i>
    <i name="e_0_energy">    -64.20822810 </i>
   </energy>
  </scstep>
  <scstep>
   <time name="dav">    0.48    0.50</time>
   <time name="total">    0.59    0.60</time>
   <energy>
    <i name="e_fr_energy">    -64.20800036 </i>
    <i name="e_wo_entrp">    -64.20800028 </i>
    <i name="e_0_energy">    -64.20800032 </i>
   </energy>
  </scstep>
  <scstep>
   <time name="dav">    0.46    0.46</time>
   <time name="total">    0.58    0.59</time>
   <energy>
    <i name="e_fr_energy">    -64.20774946 </i>
    <i name="e_wo_entrp">    -64.20774937 </i>
    <i name="e_0_energy">    -64.20774941 </i>
   </energy>
  </scstep>
  <scstep>
   <time name="dav">    0.44    0.44</time>
   <time name="total">    0.54    0.54</time>
   <energy>
    <i name="e_fr_energy">    -64.20784652 </i>
    <i name="e_wo_entrp">    -64.20784642 </i>
    <i name="e_0_energy">    -64.20784647 </i>
   </energy>
  </scstep>
  <scstep>
   <time name="dav">    0.48    0.48</time>
   <time name="total">    0.58    0.58</time>
   <energy>
    <i name="e_fr_energy">    -64.20805721 </i>
    <i name="e_wo_entrp">    -64.20805710 </i>
    <i name="e_0_energy">    -64.20805716 </i>
   </energy>
  </scstep>
  <scstep>
   <time name="dav">    0.36    0.36</time>
   <time name="total">    0.46    0.46</time>
   <energy>
    <i name="e_fr_energy">    -64.20817311 </i>
    <i name="e_wo_entrp">    -64.20817299 </i>
    <i name="e_0_energy">    -64.20817305 </i>
   </energy>
  </scstep>
  <scstep>
   <time name="dav">    0.34    0.35</time>
   <time name="total">    0.45    0.45</time>
   <energy>
    <i name="e_fr_energy">    -64.20828311 </i>
    <i name="e_wo_entrp">    -64.20828299 </i>
    <i name="e_0_energy">    -64.20828305 </i>
   </energy>
  </scstep>
  <scstep>
   <time name="dav">    0.39    0.39</time>
   <time name="total">    0.50    0.50</time>
   <energy>
    <i name="e_fr_energy">    -64.20847720 </i>
    <i name="e_wo_entrp">    -64.20847707 </i>
    <i name="e_0_energy">    -64.20847713 </i>
   </energy>
  </scstep>
  <scstep>
   <time name="dav">    0.34    0.34</time>
   <time name="total">    0.50    0.51</time>
   <energy>
    <i name="alphaZ">     30.28014394 </i>
    <i name="ewald">  14973.24208224 </i>
    <i name="hartreedc"> -16968.30787564 </i>
    <i name="XCdc">     43.14527437 </i>
    <i name="pawpsdc">   6287.21131538 </i>
    <i name="pawaedc">  -6190.19815786 </i>
    <i name="eentropy">     -0.00000013 </i>
    <i name="bandstr">   -352.06990765 </i>
    <i name="atom">   2112.48864025 </i>
    <i name="e_fr_energy">    -64.20848510 </i>
    <i name="e_wo_entrp">    -64.20848498 </i>
    <i name="e_0_energy">    -64.20848504 </i>
   </energy>
  </scstep>
  <structure>
   <crystal>
    <varray name="basis" >
     <v>       3.34288600       0.00000000       0.00000000 </v>
     <v>       0.00000000      32.60240900       0.00000000 </v>
     <v>       0.00000000       0.00000000       4.37483100 </v>
    </varray>
    <i name="volume">    476.79592902 </i>
    <varray name="rec_basis" >
     <v>       0.29914272       0.00000000       0.00000000 </v>
     <v>       0.00000000       0.03067258       0.00000000 </v>
     <v>       0.00000000       0.00000000       0.22858026 </v>
    </varray>
   </crystal>
   <varray name="positions" >
    <v>       0.00000000       0.30672600       0.91892400 </v>
    <v>       0.50000000       0.30672600       0.58107600 </v>
    <v>       0.00000000       0.37246700       0.08107600 </v>
    <v>       0.50000000       0.37246700       0.41892400 </v>
    <v>       0.50000000       0.46712900       0.91892400 </v>
    <v>       0.00000000       0.46712900       0.58107600 </v>
    <v>       0.50000000       0.53287100       0.08107600 </v>
    <v>       0.00000000       0.53287100       0.41892400 </v>
    <v>       0.00000000       0.62753300       0.91892400 </v>
    <v>       0.50000000       0.62753300       0.58107600 </v>
    <v>       0.00000000       0.69327400       0.08107600 </v>
    <v>       0.50000000       0.69327400       0.41892400 </v>
   </varray>
  </structure>
  <varray name="forces" >
   <v>       0.00000000       0.08661632      -0.02572003 </v>
   <v>      -0.00000000       0.08661632       0.02572003 </v>
   <v>       0.00000000      -0.07918942      -0.04005542 </v>
   <v>       0.00000000      -0.07918942       0.04005542 </v>
   <v>       0.00000000       0.03946132       0.01205347 </v>
   <v>       0.00000000       0.03946132      -0.01205347 </v>
   <v>       0.00000000      -0.03946132      -0.01205347 </v>
   <v>       0.00000000      -0.03946132       0.01205347 </v>
   <v>       0.00000000       0.07918942       0.04005542 </v>
   <v>       0.00000000       0.07918942      -0.04005542 </v>
   <v>       0.00000000      -0.08661632       0.02572003 </v>
   <v>       0.00000000      -0.08661632      -0.02572003 </v>
  </varray>
  <varray name="stress" >
   <v>       7.38818300       0.00000000       0.00000000 </v>
   <v>       0.00000000      -3.49443985       0.00000000 </v>
   <v>       0.00000000      -0.00000000      -0.58980117 </v>
  </varray>
  <energy>
   <i name="e_fr_energy">    -66.38242462 </i>
   <i name="e_wo_entrp">    -66.38242456 </i>
   <i name="e_0_energy">     -0.00000013 </i>
  </energy>
  <time name="totalsc">   10.33   10.39</time>
  <eigenvalues>
   <array>
    <dimension dim="1">band</dimension>
    <dimension dim="2">kpoint</dimension>
    <dimension dim="3">spin</dimension>
    <field>eigene</field>
    <field>occ</field>
    <set>
     <set comment="spin 1">
      <set comment="kpoint 1">
       <r>  -14.8508    1.0000 </r>
       <r>  -14.7308    1.0000 </r>
       <r>  -14.6617    1.0000 </r>
       <r>  -12.3714    1.0000 </r>
       <r>  -12.1259    1.0000 </r>
       <r>  -11.9454    1.0000 </r>
       <r>   -8.6013    1.0000 </r>
       <r>   -8.5172    1.0000 </r>
       <r>   -8.4868    1.0000 </r>
       <r>   -5.9229    1.0000 </r>
       <r>   -5.5444    1.0000 </r>
       <r>   -5.1254    1.0000 </r>
       <r>   -4.5040    1.0000 </r>
       <r>   -4.5037    1.0000 </r>
       <r>   -4.1862    1.0000 </r>
       <r>   -4.1415    1.0000 </r>
       <r>   -3.9944    1.0000 </r>
       <r>   -3.9201    1.0000 </r>
       <r>   -3.3894    1.0000 </r>
       <r>   -3.2891    1.0000 </r>
       <r>   -3.2389    1.0000 </r>
       <r>   -1.8796    1.0000 </r>
       <r>   -1.7326    1.0000 </r>
       <r>   -1.6246    1.0000 </r>
       <r>   -1.5861    1.0000 </r>
       <r>   -1.5005    1.0000 </r>
       <r>   -1.1080    1.0000 </r>
       <r>   -0.2487    1.0000 </r>
       <r>    0.3552    1.0000 </r>
       <r>    0.9107    1.0000 </r>
       <r>    0.9694    0.0000 </r>
       <r>    1.4970    0.0000 </r>
       <r>    1.5245    0.0000 </r>
       <r>    1.6980    0.0000 </r>
       <r>    1.7060    0.0000 </r>
       <r>    1.8623    0.0000 </r>
       <r>    2.7312    0.0000 </r>
       <r>    2.9011    0.0000 </r>
       <r>    2.9726    0.0000 </r>
       <r>    3.7174    0.0000 </r>
      </set>
      <set comment="kpoint 2">
       <r>  -14.1267    1.0000 </r>
       <r>  -14.0095    1.0000 </r>
       <r>  -13.9433    1.0000 </r>
       <r>  -11.6158    1.0000 </r>
       <r>  -11.3736    1.0000 </r>
       <r>  -11.1956    1.0000 </r>
       <r>   -9.4245    1.0000 </r>
       <r>   -9.3659    1.0000 </r>
       <r>   -9.3621    1.0000 </r>
       <r>   -6.0172    1.0000 </r>
       <r>   -5.8715    1.0000 </r>
       <r>   -5.7782    1.0000 </r>
       <r>   -5.3275    1.0000 </r>
       <r>   -4.9703    1.0000 </r>
       <r>   -4.8584    1.0000 </r>
       <r>   -4.8111    1.0000 </r>
       <r>   -4.7931    1.0000 </r>
       <r>   -4.6106    1.0000 </r>
       <r>   -3.8734    1.0000 </r>
       <r>   -3.5552    1.0000 </r>
       <r>   -3.4176    1.0000 </r>
       <r>   -2.8477    1.0000 </r>
       <r>   -2.5690    1.0000 </r>
       <r>   -2.3112    1.0000 </r>
       <r>   -1.6767    1.0000 </r>
       <r>   -1.3946    1.0000 </r>
       <r>   -0.9433    1.0000 </r>
       <r>   -0.3757    1.0000 </r>
       <r>   -0.1901    1.0000 </r>
       <r>   -0.1348    1.0000 </r>
       <r>    1.3074    0.0000 </r>
       <r>    1.3883    0.0000 </r>
       <r>    1.7201    0.0000 </r>
       <r>    1.7430    0.0000 </r>
       <r>    2.3160    0.0000 </r>
       <r>    2.5013    0.0000 </r>
       <r>    3.2834    0.0000 </r>
       <r>    3.5831    0.0000 </r>
       <r>    3.6253    0.0000 </r>
       <r>    3.6602    0.0000 </r>
      </set>
      <set comment="kpoint 3">
       <r>  -12.0633    1.0000 </r>
       <r>  -12.0633    1.0000 </r>
       <r>  -11.9586    1.0000 </r>
       <r>  -11.9586    1.0000 </r>
       <r>  -11.9059    1.0000 </r>
       <r>  -11.9059    1.0000 </r>
       <r>   -9.3978    1.0000 </r>
       <r>   -9.3978    1.0000 </r>
       <r>   -9.1694    1.0000 </r>
       <r>   -9.1694    1.0000 </r>
       <r>   -9.0026    1.0000 </r>
       <r>   -9.0026    1.0000 </r>
       <r>   -4.4656    1.0000 </r>
       <r>   -4.4656    1.0000 </r>
       <r>   -4.3314    1.0000 </r>
       <r>   -4.3314    1.0000 </r>
       <r>   -4.2855    1.0000 </r>
       <r>   -4.2855    1.0000 </r>
       <r>   -2.4657    1.0000 </r>
       <r>   -2.4657    1.0000 </r>
       <r>   -2.3920    1.0000 </r>
       <r>   -2.3920    1.0000 </r>
       <r>   -2.3917    1.0000 </r>
       <r>   -2.3917    1.0000 </r>
       <r>   -2.0095    1.0000 </r>
       <r>   -2.0095    1.0000 </r>
       <r>   -1.7392    1.0000 </r>
       <r>   -1.7392    1.0000 </r>
       <r>   -1.4871    1.0000 </r>
       <r>   -1.4871    1.0000 </r>
       <r>    1.6216    0.0000 </r>
       <r>    1.6216    0.0000 </r>
       <r>    1.6336    0.0000 </r>
       <r>    1.6336    0.0000 </r>
       <r>    1.7159    0.0000 </r>
       <r>    1.7159    0.0000 </r>
       <r>    2.1558    0.0000 </r>
       <r>    2.1561    0.0000 </r>
       <r>    2.1927    0.0000 </r>
       <r>    2.1930    0.0000 </r>
      </set>
      <set comment="kpoint 4">
       <r>  -14.4993    1.0000 </r>
       <r>  -14.3866    1.0000 </r>
       <r>  -14.3253    1.0000 </r>
       <r>  -12.5930    1.0000 </r>
       <r>  -12.4596    1.0000 </r>
       <r>  -12.3985    1.0000 </r>
       <r>   -9.0022    1.0000 </r>
       <r>   -8.8454    1.0000 </r>
       <r>   -8.7228    1.0000 </r>
       <r>   -6.9104    1.0000 </r>
       <r>   -6.6374    1.0000 </r>
       <r>   -6.4690    1.0000 </r>
       <r>   -4.5484    1.0000 </r>
       <r>   -4.0370    1.0000 </r>
       <r>   -3.3745    1.0000 </r>
       <r>   -3.1122    1.0000 </r>
       <r>   -3.0612    1.0000 </r>
       <r>   -3.0203    1.0000 </r>
       <r>   -2.9791    1.0000 </r>
       <r>   -2.7161    1.0000 </r>
       <r>   -2.7152    1.0000 </r>
       <r>   -1.8607    1.0000 </r>
       <r>   -1.7608    1.0000 </r>
       <r>   -1.7331    1.0000 </r>
       <r>   -1.7218    1.0000 </r>
       <r>   -1.0744    1.0000 </r>
       <r>   -0.4249    1.0000 </r>
       <r>   -0.2660    1.0000 </r>
       <r>   -0.2036    1.0000 </r>
       <r>   -0.0262    1.0000 </r>
       <r>    1.6797    0.0000 </r>
       <r>    2.0068    0.0000 </r>
       <r>    2.1159    0.0000 </r>
       <r>    2.2090    0.0000 </r>
       <r>    2.2583    0.0000 </r>
       <r>    2.2613    0.0000 </r>
       <r>    2.3700    0.0000 </r>
       <r>    2.7093    0.0000 </r>
       <r>    3.2523    0.0000 </r>
       <r>    3.3313    0.0000 </r>
      </set>
      <set comment="kpoint 5">
       <r>  -13.7874    1.0000 </r>
       <r>  -13.6776    1.0000 </r>
       <r>  -13.6193    1.0000 </r>
       <r>  -11.8975    1.0000 </r>
       <r>  -11.7763    1.0000 </r>
       <r>  -11.7265    1.0000 </r>
       <r>   -9.2587    1.0000 </r>
       <r>   -9.1094    1.0000 </r>
       <r>   -9.0043    1.0000 </r>
       <r>   -6.8745    1.0000 </r>
       <r>   -6.7464    1.0000 </r>
       <r>   -6.6861    1.0000 </r>
       <r>   -5.6596    1.0000 </r>
       <r>   -5.4928    1.0000 </r>
       <r>   -5.3793    1.0000 </r>
       <r>   -4.8167    1.0000 </r>
       <r>   -4.5966    1.0000 </r>
       <r>   -4.5647    1.0000 </r>
       <r>   -3.4961    1.0000 </r>
       <r>   -3.2711    1.0000 </r>
       <r>   -2.9263    1.0000 </r>
       <r>   -2.2264    1.0000 </r>
       <r>   -2.1965    1.0000 </r>
       <r>   -2.1215    1.0000 </r>
       <r>   -1.6134    1.0000 </r>
       <r>   -1.4371    1.0000 </r>
       <r>   -1.1876    1.0000 </r>
       <r>   -1.0882    1.0000 </r>
       <r>   -0.7085    1.0000 </r>
       <r>   -0.4742    1.0000 </r>
       <r>    2.0226    0.0000 </r>
       <r>    2.1483    0.0000 </r>
       <r>    2.3107    0.0000 </r>
       <r>    2.5731    0.0000 </r>
       <r>    2.7825    0.0000 </r>
       <r>    2.8631    0.0000 </r>
       <r>    2.9227    0.0000 </r>
       <r>    3.1770    0.0000 </r>
       <r>    3.5211    0.0000 </r>
       <r>    4.5849    0.0000 </r>
      </set>
      <set comment="kpoint 6">
       <r>  -11.8502    1.0000 </r>
       <r>  -11.8502    1.0000 </r>
       <r>  -11.7586    1.0000 </r>
       <r>  -11.7586    1.0000 </r>
       <r>  -11.7201    1.0000 </r>
       <r>  -11.7201    1.0000 </r>
       <r>   -9.4282    1.0000 </r>
       <r>   -9.4282    1.0000 </r>
       <r>   -9.2709    1.0000 </r>
       <r>   -9.2709    1.0000 </r>
       <r>   -9.1791    1.0000 </r>
       <r>   -9.1791    1.0000 </r>
       <r>   -5.0143    1.0000 </r>
       <r>   -5.0143    1.0000 </r>
       <r>   -4.8248    1.0000 </r>
       <r>   -4.8248    1.0000 </r>
       <r>   -4.6728    1.0000 </r>
       <r>   -4.6728    1.0000 </r>
       <r>   -3.6849    1.0000 </r>
       <r>   -3.6849    1.0000 </r>
       <r>   -3.4403    1.0000 </r>
       <r>   -3.4403    1.0000 </r>
       <r>   -3.3070    1.0000 </r>
       <r>   -3.3070    1.0000 </r>
       <r>   -1.5487    1.0000 </r>
       <r>   -1.5487    1.0000 </r>
       <r>   -1.2052    1.0000 </r>
       <r>   -1.2052    1.0000 </r>
       <r>   -0.9094    1.0000 </r>
       <r>   -0.9094    1.0000 </r>
       <r>    2.0081    0.0000 </r>
       <r>    2.0081    0.0000 </r>
       <r>    2.3110    0.0000 </r>
       <r>    2.3110    0.0000 </r>
       <r>    2.4579    0.0000 </r>
       <r>    2.4579    0.0000 </r>
       <r>    3.1813    0.0000 </r>
       <r>    3.1813    0.0000 </r>
       <r>    3.4052    0.0000 </r>
       <r>    3.4052    0.0000 </r>
      </set>
      <set comment="kpoint 7">
       <r>  -13.5429    1.0000 </r>
       <r>  -13.5429    1.0000 </r>
       <r>  -13.4738    1.0000 </r>
       <r>  -13.4738    1.0000 </r>
       <r>  -13.4270    1.0000 </r>
       <r>  -13.4270    1.0000 </r>
       <r>   -8.5692    1.0000 </r>
       <r>   -8.5692    1.0000 </r>
       <r>   -8.2524    1.0000 </r>
       <r>   -8.2524    1.0000 </r>
       <r>   -7.9785    1.0000 </r>
       <r>   -7.9785    1.0000 </r>
       <r>   -3.5907    1.0000 </r>
       <r>   -3.5907    1.0000 </r>
       <r>   -2.8276    1.0000 </r>
       <r>   -2.8276    1.0000 </r>
       <r>   -2.4179    1.0000 </r>
       <r>   -2.4179    1.0000 </r>
       <r>   -2.3751    1.0000 </r>
       <r>   -2.3751    1.0000 </r>
       <r>   -2.3292    1.0000 </r>
       <r>   -2.3292    1.0000 </r>
       <r>   -2.0217    1.0000 </r>
       <r>   -2.0217    1.0000 </r>
       <r>   -0.7253    1.0000 </r>
       <r>   -0.7253    1.0000 </r>
       <r>   -0.5172    1.0000 </r>
       <r>   -0.5172    1.0000 </r>
       <r>   -0.4445    1.0000 </r>
       <r>   -0.4445    1.0000 </r>
       <r>    2.1911    0.0000 </r>
       <r>    2.1911    0.0000 </r>
       <r>    2.2334    0.0000 </r>
       <r>    2.2334    0.0000 </r>
       <r>    2.2862    0.0000 </r>
       <r>    2.2862    0.0000 </r>
       <r>    3.4204    0.0000 </r>
       <r>    3.4210    0.0000 </r>
       <r>    3.5668    0.0000 </r>
       <r>    3.5761    0.0000 </r>
      </set>
      <set comment="kpoint 8">
       <r>  -12.8659    1.0000 </r>
       <r>  -12.8659    1.0000 </r>
       <r>  -12.7975    1.0000 </r>
       <r>  -12.7975    1.0000 </r>
       <r>  -12.7533    1.0000 </r>
       <r>  -12.7533    1.0000 </r>
       <r>   -8.3867    1.0000 </r>
       <r>   -8.3867    1.0000 </r>
       <r>   -8.1511    1.0000 </r>
       <r>   -8.1511    1.0000 </r>
       <r>   -7.9757    1.0000 </r>
       <r>   -7.9757    1.0000 </r>
       <r>   -5.3691    1.0000 </r>
       <r>   -5.3691    1.0000 </r>
       <r>   -5.2006    1.0000 </r>
       <r>   -5.2006    1.0000 </r>
       <r>   -5.0532    1.0000 </r>
       <r>   -5.0532    1.0000 </r>
       <r>   -3.2031    1.0000 </r>
       <r>   -3.2031    1.0000 </r>
       <r>   -2.6222    1.0000 </r>
       <r>   -2.6222    1.0000 </r>
       <r>   -2.1717    1.0000 </r>
       <r>   -2.1717    1.0000 </r>
       <r>   -1.5276    1.0000 </r>
       <r>   -1.5276    1.0000 </r>
       <r>   -1.1662    1.0000 </r>
       <r>   -1.1662    1.0000 </r>
       <r>   -0.7378    1.0000 </r>
       <r>   -0.7378    1.0000 </r>
       <r>    2.7608    0.0000 </r>
       <r>    2.7608    0.0000 </r>
       <r>    3.3316    0.0000 </r>
       <r>    3.3316    0.0000 </r>
       <r>    3.4685    0.0000 </r>
       <r>    3.4685    0.0000 </r>
       <r>    3.9139    0.0000 </r>
       <r>    3.9139    0.0000 </r>
       <r>    4.0038    0.0000 </r>
       <r>    4.0038    0.0000 </r>
      </set>
      <set comment="kpoint 9">
       <r>  -11.5617    1.0000 </r>
       <r>  -11.5617    1.0000 </r>
       <r>  -11.5065    1.0000 </r>
       <r>  -11.5065    1.0000 </r>
       <r>  -11.5064    1.0000 </r>
       <r>  -11.5064    1.0000 </r>
       <r>   -9.5261    1.0000 </r>
       <r>   -9.5261    1.0000 </r>
       <r>   -9.4638    1.0000 </r>
       <r>   -9.4638    1.0000 </r>
       <r>   -9.4625    1.0000 </r>
       <r>   -9.4625    1.0000 </r>
       <r>   -4.9586    1.0000 </r>
       <r>   -4.9586    1.0000 </r>
       <r>   -4.9445    1.0000 </r>
       <r>   -4.9445    1.0000 </r>
       <r>   -4.6687    1.0000 </r>
       <r>   -4.6687    1.0000 </r>
       <r>   -4.6158    1.0000 </r>
       <r>   -4.6158    1.0000 </r>
       <r>   -4.3730    1.0000 </r>
       <r>   -4.3730    1.0000 </r>
       <r>   -4.3721    1.0000 </r>
       <r>   -4.3721    1.0000 </r>
       <r>   -1.2341    1.0000 </r>
       <r>   -1.2341    1.0000 </r>
       <r>   -1.1802    1.0000 </r>
       <r>   -1.1802    1.0000 </r>
       <r>   -1.0517    1.0000 </r>
       <r>   -1.0517    1.0000 </r>
       <r>    2.6267    0.0000 </r>
       <r>    2.6267    0.0000 </r>
       <r>    2.7607    0.0000 </r>
       <r>    2.7607    0.0000 </r>
       <r>    2.8986    0.0000 </r>
       <r>    2.8986    0.0000 </r>
       <r>    4.8142    0.0000 </r>
       <r>    4.8428    0.0000 </r>
       <r>    4.8686    0.0000 </r>
       <r>    4.8713    0.0000 </r>
      </set>
     </set>
    </set>
   </array>
  </eigenvalues>
  <separator name="orbital magnetization" >
   <v name="MAGDIPOLOUT">      0.00000000      0.00000000      0.00000000</v>
  </separator>
  <dos>
   <i name="efermi">      0.94007380 </i>
   <total>
    <array>
     <dimension dim="1">gridpoints</dimension>
     <dimension dim="2">spin</dimension>
     <field>energy</field>
     <field>total</field>
     <field>integrated</field>
     <set>
      <set comment="spin 1">
       <r>   -15.8369     0.0000     0.0000 </r>
       <r>   -15.8260     0.0000     0.0000 </r>
       <r>   -15.8152     0.0000     0.0000 </r>
       <r>   -15.8043     0.0000     0.0000 </r>
       <r>   -15.7934     0.0000     0.0000 </r>
       <r>   -15.7826     0.0000     0.0000 </r>
       <r>   -15.7717     0.0000     0.0000 </r>
       <r>   -15.7609     0.0000     0.0000 </r>
       <r>   -15.7500     0.0000     0.0000 </r>
       <r>   -15.7392     0.0000     0.0000 </r>
       <r>   -15.7283     0.0000     0.0000 </r>
       <r>   -15.7175     0.0000     0.0000 </r>
       <r>   -15.7066     0.0000     0.0000 </r>
       <r>   -15.6958     0.0000     0.0000 </r>
       <r>   -15.6849     0.0000     0.0000 </r>
       <r>   -15.6741     0.0000     0.0000 </r>
       <r>   -15.6632     0.0000     0.0000 </r>
       <r>   -15.6524     0.0000     0.0000 </r>
       <r>   -15.6415     0.0000     0.0000 </r>
       <r>   -15.6307     0.0000     0.0000 </r>
       <r>   -15.6198     0.0000     0.0000 </r>
       <r>   -15.6090     0.0000     0.0000 </r>
       <r>   -15.5981     0.0000     0.0000 </r>
       <r>   -15.5872     0.0000     0.0000 </r>
       <r>   -15.5764     0.0000     0.0000 </r>
       <r>   -15.5655     0.0000     0.0000 </r>
       <r>   -15.5547     0.0000     0.0000 </r>
       <r>   -15.5438     0.0000     0.0000 </r>
       <r>   -15.5330     0.0000     0.0000 </r>
       <r>   -15.5221     0.0000     0.0000 </r>
       <r>   -15.5113     0.0000     0.0000 </r>
       <r>   -15.5004     0.0000     0.0000 </r>
       <r>   -15.4896     0.0000     0.0000 </r>
       <r>   -15.4787     0.0000     0.0000 </r>
       <r>   -15.4679     0.0000     0.0000 </r>
       <r>   -15.4570     0.0000     0.0000 </r>
       <r>   -15.4462     0.0000     0.0000 </r>
       <r>   -15.4353     0.0000     0.0000 </r>
       <r>   -15.4245     0.0000     0.0000 </r>
       <r>   -15.4136     0.0000     0.0000 </r>
       <r>   -15.4028     0.0000     0.0000 </r>
       <r>   -15.3919     0.0000     0.0000 </r>
       <r>   -15.3810     0.0000     0.0000 </r>
       <r>   -15.3702     0.0000     0.0000 </r>
       <r>   -15.3593     0.0000     0.0000 </r>
       <r>   -15.3485     0.0000     0.0000 </r>
       <r>   -15.3376     0.0000     0.0000 </r>
       <r>   -15.3268     0.0000     0.0000 </r>
       <r>   -15.3159     0.0000     0.0000 </r>
       <r>   -15.3051     0.0000     0.0000 </r>
       <r>   -15.2942     0.0000     0.0000 </r>
       <r>   -15.2834     0.0000     0.0000 </r>
       <r>   -15.2725     0.0000     0.0000 </r>
       <r>   -15.2617     0.0000     0.0000 </r>
       <r>   -15.2508     0.0000     0.0000 </r>
       <r>   -15.2400     0.0000     0.0000 </r>
       <r>   -15.2291     0.0000     0.0000 </r>
       <r>   -15.2183     0.0000     0.0000 </r>
       <r>   -15.2074     0.0000     0.0000 </r>
       <r>   -15.1966     0.0000     0.0000 </r>
       <r>   -15.1857     0.0000     0.0000 </r>
       <r>   -15.1749     0.0000     0.0000 </r>
       <r>   -15.1640     0.0000     0.0000 </r>
       <r>   -15.1531     0.0000     0.0000 </r>
       <r>   -15.1423     0.0000     0.0000 </r>
       <r>   -15.1314     0.0000     0.0000 </r>
       <r>   -15.1206     0.0000     0.0000 </r>
       <r>   -15.1097     0.0000     0.0000 </r>
       <r>   -15.0989     0.0000     0.0000 </r>
       <r>   -15.0880     0.0000     0.0000 </r>
       <r>   -15.0772     0.0000     0.0000 </r>
       <r>   -15.0663     0.0000     0.0000 </r>
       <r>   -15.0555     0.0000     0.0000 </r>
       <r>   -15.0446     0.0000     0.0000 </r>
       <r>   -15.0338     0.0000     0.0000 </r>
       <r>   -15.0229     0.0000     0.0000 </r>
       <r>   -15.0121     0.0000     0.0000 </r>
       <r>   -15.0012     0.0000     0.0000 </r>
       <r>   -14.9904     0.0000     0.0000 </r>
       <r>   -14.9795     0.0000     0.0000 </r>
       <r>   -14.9687     0.0000     0.0000 </r>
       <r>   -14.9578     0.0000     0.0000 </r>
       <r>   -14.9469     0.0000     0.0000 </r>
       <r>   -14.9361     0.0000     0.0000 </r>
       <r>   -14.9252     0.0000     0.0000 </r>
       <r>   -14.9144     0.0000     0.0000 </r>
       <r>   -14.9035     0.0000     0.0000 </r>
       <r>   -14.8927     0.0000     0.0000 </r>
       <r>   -14.8818     0.0001     0.0000 </r>
       <r>   -14.8710     0.0243     0.0003 </r>
       <r>   -14.8601     1.0411     0.0116 </r>
       <r>   -14.8493     5.6483     0.0729 </r>
       <r>   -14.8384     4.3370     0.1199 </r>
       <r>   -14.8276     0.4613     0.1249 </r>
       <r>   -14.8167     0.0060     0.1250 </r>
       <r>   -14.8059     0.0000     0.1250 </r>
       <r>   -14.7950     0.0000     0.1250 </r>
       <r>   -14.7842     0.0000     0.1250 </r>
       <r>   -14.7733     0.0000     0.1250 </r>
       <r>   -14.7625     0.0000     0.1250 </r>
       <r>   -14.7516     0.0185     0.1252 </r>
       <r>   -14.7407     0.8923     0.1349 </r>
       <r>   -14.7299     5.4142     0.1936 </r>
       <r>   -14.7190     4.6329     0.2439 </r>
       <r>   -14.7082     0.5520     0.2499 </r>
       <r>   -14.6973     0.0081     0.2500 </r>
       <r>   -14.6865     0.0026     0.2500 </r>
       <r>   -14.6756     0.2775     0.2530 </r>
       <r>   -14.6648     3.5331     0.2914 </r>
       <r>   -14.6539     6.1367     0.3580 </r>
       <r>   -14.6431     1.5193     0.3745 </r>
       <r>   -14.6322     0.0486     0.3750 </r>
       <r>   -14.6214     0.0002     0.3750 </r>
       <r>   -14.6105     0.0000     0.3750 </r>
       <r>   -14.5997     0.0000     0.3750 </r>
       <r>   -14.5888     0.0000     0.3750 </r>
       <r>   -14.5780     0.0000     0.3750 </r>
       <r>   -14.5671     0.0000     0.3750 </r>
       <r>   -14.5563     0.0000     0.3750 </r>
       <r>   -14.5454     0.0000     0.3750 </r>
       <r>   -14.5346     0.0000     0.3750 </r>
       <r>   -14.5237     0.0064     0.3751 </r>
       <r>   -14.5128     0.6267     0.3819 </r>
       <r>   -14.5020     7.4376     0.4626 </r>
       <r>   -14.4911    12.0862     0.5938 </r>
       <r>   -14.4803     2.7958     0.6241 </r>
       <r>   -14.4694     0.0832     0.6250 </r>
       <r>   -14.4586     0.0003     0.6250 </r>
       <r>   -14.4477     0.0000     0.6250 </r>
       <r>   -14.4369     0.0000     0.6250 </r>
       <r>   -14.4260     0.0000     0.6250 </r>
       <r>   -14.4152     0.0006     0.6250 </r>
       <r>   -14.4043     0.1388     0.6265 </r>
       <r>   -14.3935     3.6601     0.6662 </r>
       <r>   -14.3826    12.6114     0.8031 </r>
       <r>   -14.3718     6.2087     0.8705 </r>
       <r>   -14.3609     0.4132     0.8750 </r>
       <r>   -14.3501     0.0085     0.8751 </r>
       <r>   -14.3392     0.5533     0.8811 </r>
       <r>   -14.3284     7.0573     0.9577 </r>
       <r>   -14.3175    12.2776     1.0909 </r>
       <r>   -14.3066     3.0446     1.1239 </r>
       <r>   -14.2958     0.0976     1.1250 </r>
       <r>   -14.2849     0.0004     1.1250 </r>
       <r>   -14.2741     0.0000     1.1250 </r>
       <r>   -14.2632     0.0000     1.1250 </r>
       <r>   -14.2524     0.0000     1.1250 </r>
       <r>   -14.2415     0.0000     1.1250 </r>
       <r>   -14.2307     0.0000     1.1250 </r>
       <r>   -14.2198     0.0000     1.1250 </r>
       <r>   -14.2090     0.0000     1.1250 </r>
       <r>   -14.1981     0.0000     1.1250 </r>
       <r>   -14.1873     0.0000     1.1250 </r>
       <r>   -14.1764     0.0000     1.1250 </r>
       <r>   -14.1656     0.0000     1.1250 </r>
       <r>   -14.1547     0.0008     1.1250 </r>
       <r>   -14.1439     0.1735     1.1269 </r>
       <r>   -14.1330     4.1003     1.1714 </r>
       <r>   -14.1222    12.7501     1.3098 </r>
       <r>   -14.1113     5.6702     1.3713 </r>
       <r>   -14.1004     0.3387     1.3750 </r>
       <r>   -14.0896     0.0024     1.3750 </r>
       <r>   -14.0787     0.0000     1.3750 </r>
       <r>   -14.0679     0.0000     1.3750 </r>
       <r>   -14.0570     0.0000     1.3750 </r>
       <r>   -14.0462     0.0000     1.3750 </r>
       <r>   -14.0353     0.0029     1.3750 </r>
       <r>   -14.0245     0.3855     1.3792 </r>
       <r>   -14.0136     6.0169     1.4445 </r>
       <r>   -14.0028    12.6677     1.5820 </r>
       <r>   -13.9919     3.8121     1.6234 </r>
       <r>   -13.9811     0.1502     1.6250 </r>
       <r>   -13.9702     0.0023     1.6250 </r>
       <r>   -13.9594     0.2690     1.6279 </r>
       <r>   -13.9485     5.0871     1.6831 </r>
       <r>   -13.9377    12.8274     1.8224 </r>
       <r>   -13.9268     4.6283     1.8726 </r>
       <r>   -13.9160     0.2214     1.8750 </r>
       <r>   -13.9051     0.0012     1.8750 </r>
       <r>   -13.8942     0.0000     1.8750 </r>
       <r>   -13.8834     0.0000     1.8750 </r>
       <r>   -13.8725     0.0000     1.8750 </r>
       <r>   -13.8617     0.0000     1.8750 </r>
       <r>   -13.8508     0.0000     1.8750 </r>
       <r>   -13.8400     0.0000     1.8750 </r>
       <r>   -13.8291     0.0000     1.8750 </r>
       <r>   -13.8183     0.0003     1.8750 </r>
       <r>   -13.8074     0.1039     1.8761 </r>
       <r>   -13.7966     4.3202     1.9230 </r>
       <r>   -13.7857    22.8072     2.1705 </r>
       <r>   -13.7749    17.0540     2.3556 </r>
       <r>   -13.7640     1.7642     2.3748 </r>
       <r>   -13.7532     0.0223     2.3750 </r>
       <r>   -13.7423     0.0000     2.3750 </r>
       <r>   -13.7315     0.0000     2.3750 </r>
       <r>   -13.7206     0.0000     2.3750 </r>
       <r>   -13.7098     0.0001     2.3750 </r>
       <r>   -13.6989     0.0588     2.3756 </r>
       <r>   -13.6881     3.1293     2.4096 </r>
       <r>   -13.6772    20.8218     2.6356 </r>
       <r>   -13.6663    19.4744     2.8469 </r>
       <r>   -13.6555     2.5464     2.8746 </r>
       <r>   -13.6446     0.0491     2.8751 </r>
       <r>   -13.6338     0.9309     2.8852 </r>
       <r>   -13.6229    13.0939     3.0273 </r>
       <r>   -13.6121    24.9889     3.2985 </r>
       <r>   -13.6012     6.8083     3.3724 </r>
       <r>   -13.5904     0.2413     3.3750 </r>
       <r>   -13.5795     0.0010     3.3750 </r>
       <r>   -13.5687     0.0031     3.3750 </r>
       <r>   -13.5578     0.4005     3.3794 </r>
       <r>   -13.5470     6.1223     3.4458 </r>
       <r>   -13.5361    12.6377     3.5830 </r>
       <r>   -13.5253     3.7279     3.6234 </r>
       <r>   -13.5144     0.1438     3.6250 </r>
       <r>   -13.5036     0.0009     3.6250 </r>
       <r>   -13.4927     0.0848     3.6259 </r>
       <r>   -13.4819     2.8249     3.6566 </r>
       <r>   -13.4710    12.1105     3.7880 </r>
       <r>   -13.4601     7.3919     3.8682 </r>
       <r>   -13.4493     0.6362     3.8751 </r>
       <r>   -13.4384     1.2081     3.8882 </r>
       <r>   -13.4276     9.5467     3.9919 </r>
       <r>   -13.4167    10.5845     4.1067 </r>
       <r>   -13.4059     1.6518     4.1246 </r>
       <r>   -13.3950     0.0323     4.1250 </r>
       <r>   -13.3842     0.0001     4.1250 </r>
       <r>   -13.3733     0.0000     4.1250 </r>
       <r>   -13.3625     0.0000     4.1250 </r>
       <r>   -13.3516     0.0000     4.1250 </r>
       <r>   -13.3408     0.0000     4.1250 </r>
       <r>   -13.3299     0.0000     4.1250 </r>
       <r>   -13.3191     0.0000     4.1250 </r>
       <r>   -13.3082     0.0000     4.1250 </r>
       <r>   -13.2974     0.0000     4.1250 </r>
       <r>   -13.2865     0.0000     4.1250 </r>
       <r>   -13.2757     0.0000     4.1250 </r>
       <r>   -13.2648     0.0000     4.1250 </r>
       <r>   -13.2539     0.0000     4.1250 </r>
       <r>   -13.2431     0.0000     4.1250 </r>
       <r>   -13.2322     0.0000     4.1250 </r>
       <r>   -13.2214     0.0000     4.1250 </r>
       <r>   -13.2105     0.0000     4.1250 </r>
       <r>   -13.1997     0.0000     4.1250 </r>
       <r>   -13.1888     0.0000     4.1250 </r>
       <r>   -13.1780     0.0000     4.1250 </r>
       <r>   -13.1671     0.0000     4.1250 </r>
       <r>   -13.1563     0.0000     4.1250 </r>
       <r>   -13.1454     0.0000     4.1250 </r>
       <r>   -13.1346     0.0000     4.1250 </r>
       <r>   -13.1237     0.0000     4.1250 </r>
       <r>   -13.1129     0.0000     4.1250 </r>
       <r>   -13.1020     0.0000     4.1250 </r>
       <r>   -13.0912     0.0000     4.1250 </r>
       <r>   -13.0803     0.0000     4.1250 </r>
       <r>   -13.0695     0.0000     4.1250 </r>
       <r>   -13.0586     0.0000     4.1250 </r>
       <r>   -13.0478     0.0000     4.1250 </r>
       <r>   -13.0369     0.0000     4.1250 </r>
       <r>   -13.0260     0.0000     4.1250 </r>
       <r>   -13.0152     0.0000     4.1250 </r>
       <r>   -13.0043     0.0000     4.1250 </r>
       <r>   -12.9935     0.0000     4.1250 </r>
       <r>   -12.9826     0.0000     4.1250 </r>
       <r>   -12.9718     0.0000     4.1250 </r>
       <r>   -12.9609     0.0000     4.1250 </r>
       <r>   -12.9501     0.0000     4.1250 </r>
       <r>   -12.9392     0.0000     4.1250 </r>
       <r>   -12.9284     0.0000     4.1250 </r>
       <r>   -12.9175     0.0000     4.1250 </r>
       <r>   -12.9067     0.0000     4.1250 </r>
       <r>   -12.8958     0.0006     4.1250 </r>
       <r>   -12.8850     0.1646     4.1268 </r>
       <r>   -12.8741     5.5592     4.1871 </r>
       <r>   -12.8633    24.1448     4.4492 </r>
       <r>   -12.8524    14.9262     4.6111 </r>
       <r>   -12.8416     1.2638     4.6249 </r>
       <r>   -12.8307     0.0129     4.6250 </r>
       <r>   -12.8198     0.0359     4.6254 </r>
       <r>   -12.8090     2.3458     4.6508 </r>
       <r>   -12.7981    18.9318     4.8563 </r>
       <r>   -12.7873    21.3123     5.0876 </r>
       <r>   -12.7764     3.4036     5.1245 </r>
       <r>   -12.7656     1.9403     5.1456 </r>
       <r>   -12.7547    17.4463     5.3349 </r>
       <r>   -12.7439    22.5199     5.5793 </r>
       <r>   -12.7330     4.1130     5.6240 </r>
       <r>   -12.7222     0.0951     5.6250 </r>
       <r>   -12.7113     0.0002     5.6250 </r>
       <r>   -12.7005     0.0000     5.6250 </r>
       <r>   -12.6896     0.0000     5.6250 </r>
       <r>   -12.6788     0.0000     5.6250 </r>
       <r>   -12.6679     0.0000     5.6250 </r>
       <r>   -12.6571     0.0000     5.6250 </r>
       <r>   -12.6462     0.0000     5.6250 </r>
       <r>   -12.6354     0.0000     5.6250 </r>
       <r>   -12.6245     0.0001     5.6250 </r>
       <r>   -12.6136     0.0400     5.6254 </r>
       <r>   -12.6028     1.8651     5.6457 </r>
       <r>   -12.5919    10.9651     5.7647 </r>
       <r>   -12.5811     9.1005     5.8634 </r>
       <r>   -12.5702     1.0503     5.8748 </r>
       <r>   -12.5594     0.0149     5.8750 </r>
       <r>   -12.5485     0.0000     5.8750 </r>
       <r>   -12.5377     0.0000     5.8750 </r>
       <r>   -12.5268     0.0000     5.8750 </r>
       <r>   -12.5160     0.0000     5.8750 </r>
       <r>   -12.5051     0.0000     5.8750 </r>
       <r>   -12.4943     0.0000     5.8750 </r>
       <r>   -12.4834     0.0086     5.8751 </r>
       <r>   -12.4726     0.7568     5.8833 </r>
       <r>   -12.4617     8.0315     5.9705 </r>
       <r>   -12.4509    11.7384     6.0979 </r>
       <r>   -12.4400     2.4360     6.1243 </r>
       <r>   -12.4292     0.0647     6.1250 </r>
       <r>   -12.4183     0.0580     6.1256 </r>
       <r>   -12.4074     2.2913     6.1505 </r>
       <r>   -12.3966    11.5730     6.2761 </r>
       <r>   -12.3857     8.5291     6.3687 </r>
       <r>   -12.3749     4.1513     6.4137 </r>
       <r>   -12.3640     6.2343     6.4814 </r>
       <r>   -12.3532     1.6594     6.4994 </r>
       <r>   -12.3423     0.0575     6.5000 </r>
       <r>   -12.3315     0.0002     6.5000 </r>
       <r>   -12.3206     0.0000     6.5000 </r>
       <r>   -12.3098     0.0000     6.5000 </r>
       <r>   -12.2989     0.0000     6.5000 </r>
       <r>   -12.2881     0.0000     6.5000 </r>
       <r>   -12.2772     0.0000     6.5000 </r>
       <r>   -12.2664     0.0000     6.5000 </r>
       <r>   -12.2555     0.0000     6.5000 </r>
       <r>   -12.2447     0.0000     6.5000 </r>
       <r>   -12.2338     0.0000     6.5000 </r>
       <r>   -12.2230     0.0000     6.5000 </r>
       <r>   -12.2121     0.0000     6.5000 </r>
       <r>   -12.2013     0.0000     6.5000 </r>
       <r>   -12.1904     0.0000     6.5000 </r>
       <r>   -12.1795     0.0000     6.5000 </r>
       <r>   -12.1687     0.0000     6.5000 </r>
       <r>   -12.1578     0.0000     6.5000 </r>
       <r>   -12.1470     0.0167     6.5002 </r>
       <r>   -12.1361     0.8423     6.5093 </r>
       <r>   -12.1253     5.3235     6.5671 </r>
       <r>   -12.1144     4.7381     6.6185 </r>
       <r>   -12.1036     0.5883     6.6249 </r>
       <r>   -12.0927     0.0094     6.6250 </r>
       <r>   -12.0819     0.1003     6.6261 </r>
       <r>   -12.0710     3.0894     6.6596 </r>
       <r>   -12.0602    12.3083     6.7932 </r>
       <r>   -12.0493     6.9913     6.8691 </r>
       <r>   -12.0385     0.5413     6.8749 </r>
       <r>   -12.0276     0.0050     6.8750 </r>
       <r>   -12.0168     0.0000     6.8750 </r>
       <r>   -12.0059     0.0000     6.8750 </r>
       <r>   -11.9951     0.0000     6.8750 </r>
       <r>   -11.9842     0.0035     6.8750 </r>
       <r>   -11.9733     0.4296     6.8797 </r>
       <r>   -11.9625     6.4060     6.9492 </r>
       <r>   -11.9516    14.6749     7.1085 </r>
       <r>   -11.9408     9.9633     7.2166 </r>
       <r>   -11.9299     2.9208     7.2483 </r>
       <r>   -11.9191     0.9302     7.2584 </r>
       <r>   -11.9082    10.7764     7.3754 </r>
       <r>   -11.8974    32.2342     7.7252 </r>
       <r>   -11.8865    22.4762     7.9691 </r>
       <r>   -11.8757     2.8074     7.9996 </r>
       <r>   -11.8648     0.9157     8.0095 </r>
       <r>   -11.8540    12.7011     8.1473 </r>
       <r>   -11.8431    25.1302     8.4201 </r>
       <r>   -11.8323     7.1020     8.4971 </r>
       <r>   -11.8214     0.2618     8.5000 </r>
       <r>   -11.8106     0.0011     8.5000 </r>
       <r>   -11.7997     0.0219     8.5002 </r>
       <r>   -11.7889     1.7474     8.5192 </r>
       <r>   -11.7780    17.1303     8.7051 </r>
       <r>   -11.7671    27.9530     9.0085 </r>
       <r>   -11.7563    28.0724     9.3131 </r>
       <r>   -11.7454    15.9588     9.4863 </r>
       <r>   -11.7346     8.0244     9.5734 </r>
       <r>   -11.7237    37.2970     9.9782 </r>
       <r>   -11.7129    39.7492    10.4096 </r>
       <r>   -11.7020     8.0764    10.4972 </r>
       <r>   -11.6912     0.2565    10.5000 </r>
       <r>   -11.6803     0.0010    10.5000 </r>
       <r>   -11.6695     0.0000    10.5000 </r>
       <r>   -11.6586     0.0000    10.5000 </r>
       <r>   -11.6478     0.0001    10.5000 </r>
       <r>   -11.6369     0.0322    10.5004 </r>
       <r>   -11.6261     1.6501    10.5183 </r>
       <r>   -11.6152    10.5812    10.6331 </r>
       <r>   -11.6044     9.5505    10.7367 </r>
       <r>   -11.5935     1.2033    10.7498 </r>
       <r>   -11.5827     0.0538    10.7504 </r>
       <r>   -11.5718     1.7320    10.7692 </r>
       <r>   -11.5609    10.7346    10.8857 </r>
       <r>   -11.5501     9.3757    10.9874 </r>
       <r>   -11.5392     1.1414    10.9998 </r>
       <r>   -11.5284     0.0612    11.0005 </r>
       <r>   -11.5175     2.6487    11.0292 </r>
       <r>   -11.5067    19.7317    11.2434 </r>
       <r>   -11.4958    20.5778    11.4667 </r>
       <r>   -11.4850     3.0145    11.4994 </r>
       <r>   -11.4741     0.0551    11.5000 </r>
       <r>   -11.4633     0.0001    11.5000 </r>
       <r>   -11.4524     0.0000    11.5000 </r>
       <r>   -11.4416     0.0000    11.5000 </r>
       <r>   -11.4307     0.0000    11.5000 </r>
       <r>   -11.4199     0.0000    11.5000 </r>
       <r>   -11.4090     0.0000    11.5000 </r>
       <r>   -11.3982     0.0058    11.5001 </r>
       <r>   -11.3873     0.5910    11.5065 </r>
       <r>   -11.3765     7.2569    11.5852 </r>
       <r>   -11.3656    12.1802    11.7174 </r>
       <r>   -11.3548     2.9121    11.7490 </r>
       <r>   -11.3439     0.0898    11.7500 </r>
       <r>   -11.3330     0.0003    11.7500 </r>
       <r>   -11.3222     0.0000    11.7500 </r>
       <r>   -11.3113     0.0000    11.7500 </r>
       <r>   -11.3005     0.0000    11.7500 </r>
       <r>   -11.2896     0.0000    11.7500 </r>
       <r>   -11.2788     0.0000    11.7500 </r>
       <r>   -11.2679     0.0000    11.7500 </r>
       <r>   -11.2571     0.0000    11.7500 </r>
       <r>   -11.2462     0.0000    11.7500 </r>
       <r>   -11.2354     0.0000    11.7500 </r>
       <r>   -11.2245     0.0005    11.7500 </r>
       <r>   -11.2137     0.1215    11.7513 </r>
       <r>   -11.2028     3.4162    11.7884 </r>
       <r>   -11.1920    12.5006    11.9241 </r>
       <r>   -11.1811     6.5306    11.9949 </r>
       <r>   -11.1703     0.4628    12.0000 </r>
       <r>   -11.1594     0.0039    12.0000 </r>
       <r>   -11.1486     0.0000    12.0000 </r>
       <r>   -11.1377     0.0000    12.0000 </r>
       <r>   -11.1268     0.0000    12.0000 </r>
       <r>   -11.1160     0.0000    12.0000 </r>
       <r>   -11.1051     0.0000    12.0000 </r>
       <r>   -11.0943     0.0000    12.0000 </r>
       <r>   -11.0834     0.0000    12.0000 </r>
       <r>   -11.0726     0.0000    12.0000 </r>
       <r>   -11.0617     0.0000    12.0000 </r>
       <r>   -11.0509     0.0000    12.0000 </r>
       <r>   -11.0400     0.0000    12.0000 </r>
       <r>   -11.0292     0.0000    12.0000 </r>
       <r>   -11.0183     0.0000    12.0000 </r>
       <r>   -11.0075     0.0000    12.0000 </r>
       <r>   -10.9966     0.0000    12.0000 </r>
       <r>   -10.9858     0.0000    12.0000 </r>
       <r>   -10.9749     0.0000    12.0000 </r>
       <r>   -10.9641     0.0000    12.0000 </r>
       <r>   -10.9532     0.0000    12.0000 </r>
       <r>   -10.9424     0.0000    12.0000 </r>
       <r>   -10.9315     0.0000    12.0000 </r>
       <r>   -10.9206     0.0000    12.0000 </r>
       <r>   -10.9098     0.0000    12.0000 </r>
       <r>   -10.8989     0.0000    12.0000 </r>
       <r>   -10.8881     0.0000    12.0000 </r>
       <r>   -10.8772     0.0000    12.0000 </r>
       <r>   -10.8664     0.0000    12.0000 </r>
       <r>   -10.8555     0.0000    12.0000 </r>
       <r>   -10.8447     0.0000    12.0000 </r>
       <r>   -10.8338     0.0000    12.0000 </r>
       <r>   -10.8230     0.0000    12.0000 </r>
       <r>   -10.8121     0.0000    12.0000 </r>
       <r>   -10.8013     0.0000    12.0000 </r>
       <r>   -10.7904     0.0000    12.0000 </r>
       <r>   -10.7796     0.0000    12.0000 </r>
       <r>   -10.7687     0.0000    12.0000 </r>
       <r>   -10.7579     0.0000    12.0000 </r>
       <r>   -10.7470     0.0000    12.0000 </r>
       <r>   -10.7362     0.0000    12.0000 </r>
       <r>   -10.7253     0.0000    12.0000 </r>
       <r>   -10.7145     0.0000    12.0000 </r>
       <r>   -10.7036     0.0000    12.0000 </r>
       <r>   -10.6927     0.0000    12.0000 </r>
       <r>   -10.6819     0.0000    12.0000 </r>
       <r>   -10.6710     0.0000    12.0000 </r>
       <r>   -10.6602     0.0000    12.0000 </r>
       <r>   -10.6493     0.0000    12.0000 </r>
       <r>   -10.6385     0.0000    12.0000 </r>
       <r>   -10.6276     0.0000    12.0000 </r>
       <r>   -10.6168     0.0000    12.0000 </r>
       <r>   -10.6059     0.0000    12.0000 </r>
       <r>   -10.5951     0.0000    12.0000 </r>
       <r>   -10.5842     0.0000    12.0000 </r>
       <r>   -10.5734     0.0000    12.0000 </r>
       <r>   -10.5625     0.0000    12.0000 </r>
       <r>   -10.5517     0.0000    12.0000 </r>
       <r>   -10.5408     0.0000    12.0000 </r>
       <r>   -10.5300     0.0000    12.0000 </r>
       <r>   -10.5191     0.0000    12.0000 </r>
       <r>   -10.5083     0.0000    12.0000 </r>
       <r>   -10.4974     0.0000    12.0000 </r>
       <r>   -10.4865     0.0000    12.0000 </r>
       <r>   -10.4757     0.0000    12.0000 </r>
       <r>   -10.4648     0.0000    12.0000 </r>
       <r>   -10.4540     0.0000    12.0000 </r>
       <r>   -10.4431     0.0000    12.0000 </r>
       <r>   -10.4323     0.0000    12.0000 </r>
       <r>   -10.4214     0.0000    12.0000 </r>
       <r>   -10.4106     0.0000    12.0000 </r>
       <r>   -10.3997     0.0000    12.0000 </r>
       <r>   -10.3889     0.0000    12.0000 </r>
       <r>   -10.3780     0.0000    12.0000 </r>
       <r>   -10.3672     0.0000    12.0000 </r>
       <r>   -10.3563     0.0000    12.0000 </r>
       <r>   -10.3455     0.0000    12.0000 </r>
       <r>   -10.3346     0.0000    12.0000 </r>
       <r>   -10.3238     0.0000    12.0000 </r>
       <r>   -10.3129     0.0000    12.0000 </r>
       <r>   -10.3021     0.0000    12.0000 </r>
       <r>   -10.2912     0.0000    12.0000 </r>
       <r>   -10.2803     0.0000    12.0000 </r>
       <r>   -10.2695     0.0000    12.0000 </r>
       <r>   -10.2586     0.0000    12.0000 </r>
       <r>   -10.2478     0.0000    12.0000 </r>
       <r>   -10.2369     0.0000    12.0000 </r>
       <r>   -10.2261     0.0000    12.0000 </r>
       <r>   -10.2152     0.0000    12.0000 </r>
       <r>   -10.2044     0.0000    12.0000 </r>
       <r>   -10.1935     0.0000    12.0000 </r>
       <r>   -10.1827     0.0000    12.0000 </r>
       <r>   -10.1718     0.0000    12.0000 </r>
       <r>   -10.1610     0.0000    12.0000 </r>
       <r>   -10.1501     0.0000    12.0000 </r>
       <r>   -10.1393     0.0000    12.0000 </r>
       <r>   -10.1284     0.0000    12.0000 </r>
       <r>   -10.1176     0.0000    12.0000 </r>
       <r>   -10.1067     0.0000    12.0000 </r>
       <r>   -10.0959     0.0000    12.0000 </r>
       <r>   -10.0850     0.0000    12.0000 </r>
       <r>   -10.0741     0.0000    12.0000 </r>
       <r>   -10.0633     0.0000    12.0000 </r>
       <r>   -10.0524     0.0000    12.0000 </r>
       <r>   -10.0416     0.0000    12.0000 </r>
       <r>   -10.0307     0.0000    12.0000 </r>
       <r>   -10.0199     0.0000    12.0000 </r>
       <r>   -10.0090     0.0000    12.0000 </r>
       <r>    -9.9982     0.0000    12.0000 </r>
       <r>    -9.9873     0.0000    12.0000 </r>
       <r>    -9.9765     0.0000    12.0000 </r>
       <r>    -9.9656     0.0000    12.0000 </r>
       <r>    -9.9548     0.0000    12.0000 </r>
       <r>    -9.9439     0.0000    12.0000 </r>
       <r>    -9.9331     0.0000    12.0000 </r>
       <r>    -9.9222     0.0000    12.0000 </r>
       <r>    -9.9114     0.0000    12.0000 </r>
       <r>    -9.9005     0.0000    12.0000 </r>
       <r>    -9.8897     0.0000    12.0000 </r>
       <r>    -9.8788     0.0000    12.0000 </r>
       <r>    -9.8680     0.0000    12.0000 </r>
       <r>    -9.8571     0.0000    12.0000 </r>
       <r>    -9.8462     0.0000    12.0000 </r>
       <r>    -9.8354     0.0000    12.0000 </r>
       <r>    -9.8245     0.0000    12.0000 </r>
       <r>    -9.8137     0.0000    12.0000 </r>
       <r>    -9.8028     0.0000    12.0000 </r>
       <r>    -9.7920     0.0000    12.0000 </r>
       <r>    -9.7811     0.0000    12.0000 </r>
       <r>    -9.7703     0.0000    12.0000 </r>
       <r>    -9.7594     0.0000    12.0000 </r>
       <r>    -9.7486     0.0000    12.0000 </r>
       <r>    -9.7377     0.0000    12.0000 </r>
       <r>    -9.7269     0.0000    12.0000 </r>
       <r>    -9.7160     0.0000    12.0000 </r>
       <r>    -9.7052     0.0000    12.0000 </r>
       <r>    -9.6943     0.0000    12.0000 </r>
       <r>    -9.6835     0.0000    12.0000 </r>
       <r>    -9.6726     0.0000    12.0000 </r>
       <r>    -9.6618     0.0000    12.0000 </r>
       <r>    -9.6509     0.0000    12.0000 </r>
       <r>    -9.6400     0.0000    12.0000 </r>
       <r>    -9.6292     0.0000    12.0000 </r>
       <r>    -9.6183     0.0000    12.0000 </r>
       <r>    -9.6075     0.0000    12.0000 </r>
       <r>    -9.5966     0.0000    12.0000 </r>
       <r>    -9.5858     0.0000    12.0000 </r>
       <r>    -9.5749     0.0000    12.0000 </r>
       <r>    -9.5641     0.0000    12.0000 </r>
       <r>    -9.5532     0.0014    12.0000 </r>
       <r>    -9.5424     0.2448    12.0027 </r>
       <r>    -9.5315     4.8610    12.0554 </r>
       <r>    -9.5207    12.8346    12.1947 </r>
       <r>    -9.5098     4.8492    12.2473 </r>
       <r>    -9.4990     0.2436    12.2500 </r>
       <r>    -9.4881     0.0117    12.2501 </r>
       <r>    -9.4773     1.0847    12.2619 </r>
       <r>    -9.4664    13.8889    12.4126 </r>
       <r>    -9.4556    24.5882    12.6795 </r>
       <r>    -9.4447     6.7888    12.7531 </r>
       <r>    -9.4338    11.6195    12.8792 </r>
       <r>    -9.4230    36.9464    13.2802 </r>
       <r>    -9.4121    19.2623    13.4892 </r>
       <r>    -9.4013     8.0772    13.5769 </r>
       <r>    -9.3904    12.4883    13.7124 </r>
       <r>    -9.3796     4.1031    13.7570 </r>
       <r>    -9.3687    11.2764    13.8793 </r>
       <r>    -9.3579    24.8484    14.1490 </r>
       <r>    -9.3470     8.8382    14.2449 </r>
       <r>    -9.3362     0.4645    14.2500 </r>
       <r>    -9.3253     0.0031    14.2500 </r>
       <r>    -9.3145     0.0000    14.2500 </r>
       <r>    -9.3036     0.0001    14.2500 </r>
       <r>    -9.2928     0.0456    14.2505 </r>
       <r>    -9.2819     2.7219    14.2800 </r>
       <r>    -9.2711    21.6654    14.5152 </r>
       <r>    -9.2602    37.6733    14.9240 </r>
       <r>    -9.2494    25.6495    15.2024 </r>
       <r>    -9.2385     4.2878    15.2489 </r>
       <r>    -9.2277     0.1003    15.2500 </r>
       <r>    -9.2168     0.0003    15.2500 </r>
       <r>    -9.2059     0.0033    15.2500 </r>
       <r>    -9.1951     0.5365    15.2559 </r>
       <r>    -9.1842    10.5428    15.3703 </r>
       <r>    -9.1734    31.8594    15.7160 </r>
       <r>    -9.1625    21.9118    15.9538 </r>
       <r>    -9.1517     4.1121    15.9985 </r>
       <r>    -9.1408     0.1419    16.0000 </r>
       <r>    -9.1300     0.0821    16.0009 </r>
       <r>    -9.1191     3.7702    16.0418 </r>
       <r>    -9.1083    21.9955    16.2805 </r>
       <r>    -9.0974    18.1205    16.4772 </r>
       <r>    -9.0866     2.0751    16.4997 </r>
       <r>    -9.0757     0.0292    16.5000 </r>
       <r>    -9.0649     0.0000    16.5000 </r>
       <r>    -9.0540     0.0000    16.5000 </r>
       <r>    -9.0432     0.0000    16.5000 </r>
       <r>    -9.0323     0.0023    16.5000 </r>
       <r>    -9.0215     0.5138    16.5056 </r>
       <r>    -9.0106    13.7743    16.6551 </r>
       <r>    -8.9997    49.6226    17.1936 </r>
       <r>    -8.9889    26.2666    17.4787 </r>
       <r>    -8.9780     1.9468    17.4998 </r>
       <r>    -8.9672     0.0178    17.5000 </r>
       <r>    -8.9563     0.0000    17.5000 </r>
       <r>    -8.9455     0.0000    17.5000 </r>
       <r>    -8.9346     0.0000    17.5000 </r>
       <r>    -8.9238     0.0000    17.5000 </r>
       <r>    -8.9129     0.0000    17.5000 </r>
       <r>    -8.9021     0.0000    17.5000 </r>
       <r>    -8.8912     0.0000    17.5000 </r>
       <r>    -8.8804     0.0000    17.5000 </r>
       <r>    -8.8695     0.0076    17.5001 </r>
       <r>    -8.8587     0.6970    17.5076 </r>
       <r>    -8.8478     7.7700    17.5920 </r>
       <r>    -8.8370    11.8987    17.7211 </r>
       <r>    -8.8261     2.5903    17.7492 </r>
       <r>    -8.8153     0.0723    17.7500 </r>
       <r>    -8.8044     0.0002    17.7500 </r>
       <r>    -8.7935     0.0000    17.7500 </r>
       <r>    -8.7827     0.0000    17.7500 </r>
       <r>    -8.7718     0.0000    17.7500 </r>
       <r>    -8.7610     0.0000    17.7500 </r>
       <r>    -8.7501     0.0013    17.7500 </r>
       <r>    -8.7393     0.2276    17.7525 </r>
       <r>    -8.7284     4.6914    17.8034 </r>
       <r>    -8.7176    12.8308    17.9426 </r>
       <r>    -8.7067     5.0215    17.9971 </r>
       <r>    -8.6959     0.2619    18.0000 </r>
       <r>    -8.6850     0.0016    18.0000 </r>
       <r>    -8.6742     0.0000    18.0000 </r>
       <r>    -8.6633     0.0000    18.0000 </r>
       <r>    -8.6525     0.0000    18.0000 </r>
       <r>    -8.6416     0.0000    18.0000 </r>
       <r>    -8.6308     0.0002    18.0000 </r>
       <r>    -8.6199     0.0479    18.0005 </r>
       <r>    -8.6091     1.5071    18.0169 </r>
       <r>    -8.5982     6.1285    18.0834 </r>
       <r>    -8.5873     3.6686    18.1232 </r>
       <r>    -8.5765     3.6347    18.1626 </r>
       <r>    -8.5656    12.4706    18.2980 </r>
       <r>    -8.5548     6.6158    18.3698 </r>
       <r>    -8.5439     0.4775    18.3750 </r>
       <r>    -8.5331     0.1429    18.3765 </r>
       <r>    -8.5222     2.5823    18.4045 </r>
       <r>    -8.5114     6.4138    18.4741 </r>
       <r>    -8.5005     2.5738    18.5021 </r>
       <r>    -8.4897     3.7406    18.5427 </r>
       <r>    -8.4788     6.0881    18.6087 </r>
       <r>    -8.4680     1.4527    18.6245 </r>
       <r>    -8.4571     0.0447    18.6250 </r>
       <r>    -8.4463     0.0002    18.6250 </r>
       <r>    -8.4354     0.0000    18.6250 </r>
       <r>    -8.4246     0.0000    18.6250 </r>
       <r>    -8.4137     0.0032    18.6250 </r>
       <r>    -8.4029     0.5203    18.6307 </r>
       <r>    -8.3920    10.0114    18.7393 </r>
       <r>    -8.3812    25.6630    19.0178 </r>
       <r>    -8.3703     9.4134    19.1200 </r>
       <r>    -8.3594     0.4582    19.1250 </r>
       <r>    -8.3486     0.0026    19.1250 </r>
       <r>    -8.3377     0.0000    19.1250 </r>
       <r>    -8.3269     0.0000    19.1250 </r>
       <r>    -8.3160     0.0000    19.1250 </r>
       <r>    -8.3052     0.0000    19.1250 </r>
       <r>    -8.2943     0.0000    19.1250 </r>
       <r>    -8.2835     0.0001    19.1250 </r>
       <r>    -8.2726     0.0489    19.1255 </r>
       <r>    -8.2618     2.0890    19.1482 </r>
       <r>    -8.2509    11.3062    19.2709 </r>
       <r>    -8.2401     8.6609    19.3649 </r>
       <r>    -8.2292     0.9190    19.3749 </r>
       <r>    -8.2184     0.0119    19.3750 </r>
       <r>    -8.2075     0.0000    19.3750 </r>
       <r>    -8.1967     0.0000    19.3750 </r>
       <r>    -8.1858     0.0000    19.3750 </r>
       <r>    -8.1750     0.0168    19.3752 </r>
       <r>    -8.1641     1.4875    19.3913 </r>
       <r>    -8.1532    15.9519    19.5644 </r>
       <r>    -8.1424    23.5467    19.8200 </r>
       <r>    -8.1315     4.9365    19.8736 </r>
       <r>    -8.1207     0.1323    19.8750 </r>
       <r>    -8.1098     0.0004    19.8750 </r>
       <r>    -8.0990     0.0000    19.8750 </r>
       <r>    -8.0881     0.0000    19.8750 </r>
       <r>    -8.0773     0.0000    19.8750 </r>
       <r>    -8.0664     0.0000    19.8750 </r>
       <r>    -8.0556     0.0000    19.8750 </r>
       <r>    -8.0447     0.0000    19.8750 </r>
       <r>    -8.0339     0.0000    19.8750 </r>
       <r>    -8.0230     0.0000    19.8750 </r>
       <r>    -8.0122     0.0000    19.8750 </r>
       <r>    -8.0013     0.0210    19.8752 </r>
       <r>    -7.9905     1.8678    19.8955 </r>
       <r>    -7.9796    21.5565    20.1294 </r>
       <r>    -7.9688    36.2186    20.5225 </r>
       <r>    -7.9579     9.1309    20.6216 </r>
       <r>    -7.9470     0.3120    20.6250 </r>
       <r>    -7.9362     0.0013    20.6250 </r>
       <r>    -7.9253     0.0000    20.6250 </r>
       <r>    -7.9145     0.0000    20.6250 </r>
       <r>    -7.9036     0.0000    20.6250 </r>
       <r>    -7.8928     0.0000    20.6250 </r>
       <r>    -7.8819     0.0000    20.6250 </r>
       <r>    -7.8711     0.0000    20.6250 </r>
       <r>    -7.8602     0.0000    20.6250 </r>
       <r>    -7.8494     0.0000    20.6250 </r>
       <r>    -7.8385     0.0000    20.6250 </r>
       <r>    -7.8277     0.0000    20.6250 </r>
       <r>    -7.8168     0.0000    20.6250 </r>
       <r>    -7.8060     0.0000    20.6250 </r>
       <r>    -7.7951     0.0000    20.6250 </r>
       <r>    -7.7843     0.0000    20.6250 </r>
       <r>    -7.7734     0.0000    20.6250 </r>
       <r>    -7.7626     0.0000    20.6250 </r>
       <r>    -7.7517     0.0000    20.6250 </r>
       <r>    -7.7409     0.0000    20.6250 </r>
       <r>    -7.7300     0.0000    20.6250 </r>
       <r>    -7.7191     0.0000    20.6250 </r>
       <r>    -7.7083     0.0000    20.6250 </r>
       <r>    -7.6974     0.0000    20.6250 </r>
       <r>    -7.6866     0.0000    20.6250 </r>
       <r>    -7.6757     0.0000    20.6250 </r>
       <r>    -7.6649     0.0000    20.6250 </r>
       <r>    -7.6540     0.0000    20.6250 </r>
       <r>    -7.6432     0.0000    20.6250 </r>
       <r>    -7.6323     0.0000    20.6250 </r>
       <r>    -7.6215     0.0000    20.6250 </r>
       <r>    -7.6106     0.0000    20.6250 </r>
       <r>    -7.5998     0.0000    20.6250 </r>
       <r>    -7.5889     0.0000    20.6250 </r>
       <r>    -7.5781     0.0000    20.6250 </r>
       <r>    -7.5672     0.0000    20.6250 </r>
       <r>    -7.5564     0.0000    20.6250 </r>
[...]
        <r>  0.0000  0.0194  0.0346  0.0024  0.0000  0.0000  0.0000  0.0000  0.0000 </r>
        <r>  0.0000  0.0016  0.0028  0.0297  0.0000  0.0000  0.0000  0.0000  0.0000 </r>
        <r>  0.0000  0.0194  0.0346  0.0024  0.0000  0.0000  0.0000  0.0000  0.0000 </r>
        <r>  0.0000  0.0016  0.0028  0.0297  0.0000  0.0000  0.0000  0.0000  0.0000 </r>
        <r>  0.0022  0.0003  0.0010  0.0071  0.0000  0.0000  0.0000  0.0000  0.0000 </r>
        <r>  0.0272  0.0038  0.0123  0.0006  0.0000  0.0000  0.0000  0.0000  0.0000 </r>
        <r>  0.0023  0.0005  0.0017  0.0136  0.0000  0.0000  0.0000  0.0000  0.0000 </r>
        <r>  0.0287  0.0064  0.0205  0.0011  0.0000  0.0000  0.0000  0.0000  0.0000 </r>
       </set>
       <set comment="band 25">
        <r>  0.0001  0.0014  0.0006  0.0004  0.0000  0.0000  0.0000  0.0000  0.0000 </r>
        <r>  0.0001  0.0013  0.0006  0.0004  0.0000  0.0000  0.0000  0.0000  0.0000 </r>
        <r>  0.0003  0.0000  0.0012  0.0007  0.0000  0.0000  0.0000  0.0000  0.0000 </r>
        <r>  0.0003  0.0000  0.0011  0.0008  0.0000  0.0000  0.0000  0.0000  0.0000 </r>
        <r>  0.0096  0.0741  0.0107  0.0099  0.0000  0.0000  0.0000  0.0000  0.0000 </r>
        <r>  0.0103  0.0790  0.0114  0.0093  0.0000  0.0000  0.0000  0.0000  0.0000 </r>
        <r>  0.0096  0.0741  0.0107  0.0099  0.0000  0.0000  0.0000  0.0000  0.0000 </r>
        <r>  0.0103  0.0790  0.0114  0.0093  0.0000  0.0000  0.0000  0.0000  0.0000 </r>
        <r>  0.0003  0.0000  0.0012  0.0007  0.0000  0.0000  0.0000  0.0000  0.0000 </r>
        <r>  0.0003  0.0000  0.0011  0.0008  0.0000  0.0000  0.0000  0.0000  0.0000 </r>
        <r>  0.0001  0.0014  0.0006  0.0004  0.0000  0.0000  0.0000  0.0000  0.0000 </r>
        <r>  0.0001  0.0013  0.0006  0.0004  0.0000  0.0000  0.0000  0.0000  0.0000 </r>
       </set>
       <set comment="band 26">
        <r>  0.0001  0.0013  0.0006  0.0004  0.0000  0.0000  0.0000  0.0000  0.0000 </r>
        <r>  0.0001  0.0014  0.0006  0.0004  0.0000  0.0000  0.0000  0.0000  0.0000 </r>
        <r>  0.0003  0.0000  0.0011  0.0008  0.0000  0.0000  0.0000  0.0000  0.0000 </r>
        <r>  0.0003  0.0000  0.0012  0.0007  0.0000  0.0000  0.0000  0.0000  0.0000 </r>
        <r>  0.0103  0.0790  0.0114  0.0093  0.0000  0.0000  0.0000  0.0000  0.0000 </r>
        <r>  0.0096  0.0741  0.0107  0.0099  0.0000  0.0000  0.0000  0.0000  0.0000 </r>
        <r>  0.0103  0.0790  0.0114  0.0093  0.0000  0.0000  0.0000  0.0000  0.0000 </r>
        <r>  0.0096  0.0741  0.0107  0.0099  0.0000  0.0000  0.0000  0.0000  0.0000 </r>
        <r>  0.0003  0.0000  0.0011  0.0008  0.0000  0.0000  0.0000  0.0000  0.0000 </r>
        <r>  0.0003  0.0000  0.0012  0.0007  0.0000  0.0000  0.0000  0.0000  0.0000 </r>
        <r>  0.0001  0.0013  0.0006  0.0004  0.0000  0.0000  0.0000  0.0000  0.0000 </r>
        <r>  0.0001  0.0014  0.0006  0.0004  0.0000  0.0000  0.0000  0.0000  0.0000 </r>
       </set>
       <set comment="band 27">
        <r>  0.0062  0.0385  0.0062  0.0054  0.0000  0.0000  0.0000  0.0000  0.0000 </r>
        <r>  0.0064  0.0395  0.0064  0.0053  0.0000  0.0000  0.0000  0.0000  0.0000 </r>
        <r>  0.0040  0.0384  0.0050  0.0046  0.0000  0.0000  0.0000  0.0000  0.0000 </r>
        <r>  0.0041  0.0394  0.0051  0.0045  0.0000  0.0000  0.0000  0.0000  0.0000 </r>
        <r>  0.0004  0.0011  0.0000  0.0000  0.0000  0.0000  0.0000  0.0000  0.0000 </r>
        <r>  0.0004  0.0010  0.0000  0.0000  0.0000  0.0000  0.0000  0.0000  0.0000 </r>
        <r>  0.0004  0.0011  0.0000  0.0000  0.0000  0.0000  0.0000  0.0000  0.0000 </r>
        <r>  0.0004  0.0010  0.0000  0.0000  0.0000  0.0000  0.0000  0.0000  0.0000 </r>
        <r>  0.0040  0.0384  0.0050  0.0046  0.0000  0.0000  0.0000  0.0000  0.0000 </r>
        <r>  0.0041  0.0394  0.0051  0.0045  0.0000  0.0000  0.0000  0.0000  0.0000 </r>
        <r>  0.0062  0.0385  0.0062  0.0054  0.0000  0.0000  0.0000  0.0000  0.0000 </r>
        <r>  0.0064  0.0395  0.0064  0.0053  0.0000  0.0000  0.0000  0.0000  0.0000 </r>
       </set>
       <set comment="band 28">
        <r>  0.0064  0.0395  0.0064  0.0053  0.0000  0.0000  0.0000  0.0000  0.0000 </r>
        <r>  0.0062  0.0385  0.0062  0.0054  0.0000  0.0000  0.0000  0.0000  0.0000 </r>
        <r>  0.0041  0.0394  0.0051  0.0045  0.0000  0.0000  0.0000  0.0000  0.0000 </r>
        <r>  0.0040  0.0384  0.0050  0.0046  0.0000  0.0000  0.0000  0.0000  0.0000 </r>
        <r>  0.0004  0.0010  0.0000  0.0000  0.0000  0.0000  0.0000  0.0000  0.0000 </r>
        <r>  0.0004  0.0011  0.0000  0.0000  0.0000  0.0000  0.0000  0.0000  0.0000 </r>
        <r>  0.0004  0.0010  0.0000  0.0000  0.0000  0.0000  0.0000  0.0000  0.0000 </r>
        <r>  0.0004  0.0011  0.0000  0.0000  0.0000  0.0000  0.0000  0.0000  0.0000 </r>
        <r>  0.0041  0.0394  0.0051  0.0045  0.0000  0.0000  0.0000  0.0000  0.0000 </r>
        <r>  0.0040  0.0384  0.0050  0.0046  0.0000  0.0000  0.0000  0.0000  0.0000 </r>
        <r>  0.0064  0.0395  0.0064  0.0053  0.0000  0.0000  0.0000  0.0000  0.0000 </r>
        <r>  0.0062  0.0385  0.0062  0.0054  0.0000  0.0000  0.0000  0.0000  0.0000 </r>
       </set>
       <set comment="band 29">
        <r>  0.0004  0.0025  0.0004  0.0102  0.0000  0.0000  0.0000  0.0000  0.0000 </r>
        <r>  0.0110  0.0772  0.0118  0.0003  0.0000  0.0000  0.0000  0.0000  0.0000 </r>
        <r>  0.0003  0.0025  0.0004  0.0098  0.0000  0.0000  0.0000  0.0000  0.0000 </r>
        <r>  0.0101  0.0773  0.0113  0.0003  0.0000  0.0000  0.0000  0.0000  0.0000 </r>
        <r>  0.0000  0.0008  0.0033  0.0001  0.0000  0.0000  0.0000  0.0000  0.0000 </r>
        <r>  0.0000  0.0000  0.0001  0.0021  0.0000  0.0000  0.0000  0.0000  0.0000 </r>
        <r>  0.0000  0.0008  0.0033  0.0001  0.0000  0.0000  0.0000  0.0000  0.0000 </r>
        <r>  0.0000  0.0000  0.0001  0.0021  0.0000  0.0000  0.0000  0.0000  0.0000 </r>
        <r>  0.0003  0.0025  0.0004  0.0098  0.0000  0.0000  0.0000  0.0000  0.0000 </r>
        <r>  0.0101  0.0773  0.0113  0.0003  0.0000  0.0000  0.0000  0.0000  0.0000 </r>
        <r>  0.0004  0.0025  0.0004  0.0102  0.0000  0.0000  0.0000  0.0000  0.0000 </r>
        <r>  0.0110  0.0772  0.0118  0.0003  0.0000  0.0000  0.0000  0.0000  0.0000 </r>
       </set>
       <set comment="band 30">
        <r>  0.0110  0.0772  0.0118  0.0003  0.0000  0.0000  0.0000  0.0000  0.0000 </r>
        <r>  0.0004  0.0025  0.0004  0.0102  0.0000  0.0000  0.0000  0.0000  0.0000 </r>
        <r>  0.0101  0.0773  0.0113  0.0003  0.0000  0.0000  0.0000  0.0000  0.0000 </r>
        <r>  0.0003  0.0025  0.0004  0.0098  0.0000  0.0000  0.0000  0.0000  0.0000 </r>
        <r>  0.0000  0.0000  0.0001  0.0021  0.0000  0.0000  0.0000  0.0000  0.0000 </r>
        <r>  0.0000  0.0008  0.0033  0.0001  0.0000  0.0000  0.0000  0.0000  0.0000 </r>
        <r>  0.0000  0.0000  0.0001  0.0021  0.0000  0.0000  0.0000  0.0000  0.0000 </r>
        <r>  0.0000  0.0008  0.0033  0.0001  0.0000  0.0000  0.0000  0.0000  0.0000 </r>
        <r>  0.0101  0.0773  0.0113  0.0003  0.0000  0.0000  0.0000  0.0000  0.0000 </r>
        <r>  0.0003  0.0025  0.0004  0.0098  0.0000  0.0000  0.0000  0.0000  0.0000 </r>
        <r>  0.0110  0.0772  0.0118  0.0003  0.0000  0.0000  0.0000  0.0000  0.0000 </r>
        <r>  0.0004  0.0025  0.0004  0.0102  0.0000  0.0000  0.0000  0.0000  0.0000 </r>
       </set>
       <set comment="band 31">
        <r>  0.0028  0.0118  0.0009  0.0023  0.0000  0.0000  0.0000  0.0000  0.0000 </r>
        <r>  0.0084  0.0349  0.0025  0.0008  0.0000  0.0000  0.0000  0.0000  0.0000 </r>
        <r>  0.0027  0.0121  0.0004  0.0017  0.0000  0.0000  0.0000  0.0000  0.0000 </r>
        <r>  0.0079  0.0359  0.0011  0.0006  0.0000  0.0000  0.0000  0.0000  0.0000 </r>
        <r>  0.0049  0.0042  0.0007  0.0001  0.0000  0.0000  0.0000  0.0000  0.0000 </r>
        <r>  0.0017  0.0014  0.0002  0.0003  0.0000  0.0000  0.0000  0.0000  0.0000 </r>
        <r>  0.0049  0.0042  0.0007  0.0001  0.0000  0.0000  0.0000  0.0000  0.0000 </r>
        <r>  0.0017  0.0014  0.0002  0.0003  0.0000  0.0000  0.0000  0.0000  0.0000 </r>
        <r>  0.0027  0.0121  0.0004  0.0017  0.0000  0.0000  0.0000  0.0000  0.0000 </r>
        <r>  0.0079  0.0359  0.0011  0.0006  0.0000  0.0000  0.0000  0.0000  0.0000 </r>
        <r>  0.0028  0.0118  0.0009  0.0023  0.0000  0.0000  0.0000  0.0000  0.0000 </r>
        <r>  0.0084  0.0349  0.0025  0.0008  0.0000  0.0000  0.0000  0.0000  0.0000 </r>
       </set>
       <set comment="band 32">
        <r>  0.0084  0.0349  0.0025  0.0008  0.0000  0.0000  0.0000  0.0000  0.0000 </r>
        <r>  0.0028  0.0118  0.0009  0.0023  0.0000  0.0000  0.0000  0.0000  0.0000 </r>
        <r>  0.0079  0.0359  0.0011  0.0006  0.0000  0.0000  0.0000  0.0000  0.0000 </r>
        <r>  0.0027  0.0121  0.0004  0.0017  0.0000  0.0000  0.0000  0.0000  0.0000 </r>
        <r>  0.0017  0.0014  0.0002  0.0003  0.0000  0.0000  0.0000  0.0000  0.0000 </r>
        <r>  0.0049  0.0042  0.0007  0.0001  0.0000  0.0000  0.0000  0.0000  0.0000 </r>
        <r>  0.0017  0.0014  0.0002  0.0003  0.0000  0.0000  0.0000  0.0000  0.0000 </r>
        <r>  0.0049  0.0042  0.0007  0.0001  0.0000  0.0000  0.0000  0.0000  0.0000 </r>
        <r>  0.0079  0.0359  0.0011  0.0006  0.0000  0.0000  0.0000  0.0000  0.0000 </r>
        <r>  0.0027  0.0121  0.0004  0.0017  0.0000  0.0000  0.0000  0.0000  0.0000 </r>
        <r>  0.0084  0.0349  0.0025  0.0008  0.0000  0.0000  0.0000  0.0000  0.0000 </r>
        <r>  0.0028  0.0118  0.0009  0.0023  0.0000  0.0000  0.0000  0.0000  0.0000 </r>
       </set>
       <set comment="band 33">
        <r>  0.0002  0.0077  0.0002  0.0001  0.0000  0.0000  0.0000  0.0000  0.0000 </r>
        <r>  0.0002  0.0064  0.0002  0.0001  0.0000  0.0000  0.0000  0.0000  0.0000 </r>
        <r>  0.0048  0.0000  0.0022  0.0008  0.0000  0.0000  0.0000  0.0000  0.0000 </r>
        <r>  0.0040  0.0000  0.0018  0.0010  0.0000  0.0000  0.0000  0.0000  0.0000 </r>
        <r>  0.0100  0.0439  0.0023  0.0032  0.0000  0.0000  0.0000  0.0000  0.0000 </r>
        <r>  0.0121  0.0529  0.0028  0.0027  0.0000  0.0000  0.0000  0.0000  0.0000 </r>
        <r>  0.0100  0.0439  0.0023  0.0032  0.0000  0.0000  0.0000  0.0000  0.0000 </r>
        <r>  0.0121  0.0529  0.0028  0.0027  0.0000  0.0000  0.0000  0.0000  0.0000 </r>
        <r>  0.0048  0.0000  0.0022  0.0008  0.0000  0.0000  0.0000  0.0000  0.0000 </r>
        <r>  0.0040  0.0000  0.0018  0.0010  0.0000  0.0000  0.0000  0.0000  0.0000 </r>
        <r>  0.0002  0.0077  0.0002  0.0001  0.0000  0.0000  0.0000  0.0000  0.0000 </r>
        <r>  0.0002  0.0064  0.0002  0.0001  0.0000  0.0000  0.0000  0.0000  0.0000 </r>
       </set>
       <set comment="band 34">
        <r>  0.0002  0.0064  0.0002  0.0001  0.0000  0.0000  0.0000  0.0000  0.0000 </r>
        <r>  0.0002  0.0077  0.0002  0.0001  0.0000  0.0000  0.0000  0.0000  0.0000 </r>
        <r>  0.0040  0.0000  0.0018  0.0010  0.0000  0.0000  0.0000  0.0000  0.0000 </r>
        <r>  0.0048  0.0000  0.0022  0.0008  0.0000  0.0000  0.0000  0.0000  0.0000 </r>
        <r>  0.0121  0.0529  0.0028  0.0027  0.0000  0.0000  0.0000  0.0000  0.0000 </r>
        <r>  0.0100  0.0439  0.0023  0.0032  0.0000  0.0000  0.0000  0.0000  0.0000 </r>
        <r>  0.0121  0.0529  0.0028  0.0027  0.0000  0.0000  0.0000  0.0000  0.0000 </r>
        <r>  0.0100  0.0439  0.0023  0.0032  0.0000  0.0000  0.0000  0.0000  0.0000 </r>
        <r>  0.0040  0.0000  0.0018  0.0010  0.0000  0.0000  0.0000  0.0000  0.0000 </r>
        <r>  0.0048  0.0000  0.0022  0.0008  0.0000  0.0000  0.0000  0.0000  0.0000 </r>
        <r>  0.0002  0.0064  0.0002  0.0001  0.0000  0.0000  0.0000  0.0000  0.0000 </r>
        <r>  0.0002  0.0077  0.0002  0.0001  0.0000  0.0000  0.0000  0.0000  0.0000 </r>
       </set>
       <set comment="band 35">
        <r>  0.0108  0.0468  0.0019  0.0004  0.0000  0.0000  0.0000  0.0000  0.0000 </r>
        <r>  0.0018  0.0079  0.0003  0.0023  0.0000  0.0000  0.0000  0.0000  0.0000 </r>
        <r>  0.0112  0.0461  0.0040  0.0006  0.0000  0.0000  0.0000  0.0000  0.0000 </r>
        <r>  0.0019  0.0077  0.0007  0.0034  0.0000  0.0000  0.0000  0.0000  0.0000 </r>
        <r>  0.0004  0.0011  0.0005  0.0013  0.0000  0.0000  0.0000  0.0000  0.0000 </r>
        <r>  0.0023  0.0063  0.0031  0.0002  0.0000  0.0000  0.0000  0.0000  0.0000 </r>
        <r>  0.0004  0.0011  0.0005  0.0013  0.0000  0.0000  0.0000  0.0000  0.0000 </r>
        <r>  0.0023  0.0063  0.0031  0.0002  0.0000  0.0000  0.0000  0.0000  0.0000 </r>
        <r>  0.0112  0.0461  0.0040  0.0006  0.0000  0.0000  0.0000  0.0000  0.0000 </r>
        <r>  0.0019  0.0077  0.0007  0.0034  0.0000  0.0000  0.0000  0.0000  0.0000 </r>
        <r>  0.0108  0.0468  0.0019  0.0004  0.0000  0.0000  0.0000  0.0000  0.0000 </r>
        <r>  0.0018  0.0079  0.0003  0.0023  0.0000  0.0000  0.0000  0.0000  0.0000 </r>
       </set>
       <set comment="band 36">
        <r>  0.0018  0.0079  0.0003  0.0023  0.0000  0.0000  0.0000  0.0000  0.0000 </r>
        <r>  0.0108  0.0468  0.0019  0.0004  0.0000  0.0000  0.0000  0.0000  0.0000 </r>
        <r>  0.0019  0.0077  0.0007  0.0034  0.0000  0.0000  0.0000  0.0000  0.0000 </r>
        <r>  0.0112  0.0461  0.0040  0.0006  0.0000  0.0000  0.0000  0.0000  0.0000 </r>
        <r>  0.0023  0.0063  0.0031  0.0002  0.0000  0.0000  0.0000  0.0000  0.0000 </r>
        <r>  0.0004  0.0011  0.0005  0.0013  0.0000  0.0000  0.0000  0.0000  0.0000 </r>
        <r>  0.0023  0.0063  0.0031  0.0002  0.0000  0.0000  0.0000  0.0000  0.0000 </r>
        <r>  0.0004  0.0011  0.0005  0.0013  0.0000  0.0000  0.0000  0.0000  0.0000 </r>
        <r>  0.0019  0.0077  0.0007  0.0034  0.0000  0.0000  0.0000  0.0000  0.0000 </r>
        <r>  0.0112  0.0461  0.0040  0.0006  0.0000  0.0000  0.0000  0.0000  0.0000 </r>
        <r>  0.0018  0.0079  0.0003  0.0023  0.0000  0.0000  0.0000  0.0000  0.0000 </r>
        <r>  0.0108  0.0468  0.0019  0.0004  0.0000  0.0000  0.0000  0.0000  0.0000 </r>
       </set>
       <set comment="band 37">
        <r>  0.0000  0.0000  0.0006  0.0002  0.0000  0.0000  0.0000  0.0000  0.0000 </r>
        <r>  0.0000  0.0000  0.0003  0.0003  0.0000  0.0000  0.0000  0.0000  0.0000 </r>
        <r>  0.0000  0.0001  0.0011  0.0002  0.0000  0.0000  0.0000  0.0000  0.0000 </r>
        <r>  0.0000  0.0001  0.0007  0.0003  0.0000  0.0000  0.0000  0.0000  0.0000 </r>
        <r>  0.0034  0.0018  0.0814  0.0294  0.0000  0.0000  0.0000  0.0000  0.0000 </r>
        <r>  0.0028  0.0016  0.0654  0.0366  0.0000  0.0000  0.0000  0.0000  0.0000 </r>
        <r>  0.0035  0.0018  0.0821  0.0294  0.0000  0.0000  0.0000  0.0000  0.0000 </r>
        <r>  0.0028  0.0015  0.0656  0.0366  0.0000  0.0000  0.0000  0.0000  0.0000 </r>
        <r>  0.0001  0.0001  0.0014  0.0004  0.0000  0.0000  0.0000  0.0000  0.0000 </r>
        <r>  0.0000  0.0003  0.0008  0.0005  0.0000  0.0000  0.0000  0.0000  0.0000 </r>
        <r>  0.0000  0.0001  0.0010  0.0004  0.0000  0.0000  0.0000  0.0000  0.0000 </r>
        <r>  0.0001  0.0001  0.0009  0.0005  0.0000  0.0000  0.0000  0.0000  0.0000 </r>
       </set>
       <set comment="band 38">
        <r>  0.0002  0.0002  0.0030  0.0291  0.0000  0.0000  0.0000  0.0000  0.0000 </r>
        <r>  0.0026  0.0014  0.0618  0.0014  0.0000  0.0000  0.0000  0.0000  0.0000 </r>
        <r>  0.0001  0.0003  0.0028  0.0306  0.0000  0.0000  0.0000  0.0000  0.0000 </r>
        <r>  0.0031  0.0010  0.0716  0.0014  0.0000  0.0000  0.0000  0.0000  0.0000 </r>
        <r>  0.0014  0.0016  0.0286  0.0186  0.0000  0.0000  0.0000  0.0000  0.0000 </r>
        <r>  0.0018  0.0009  0.0423  0.0139  0.0000  0.0000  0.0000  0.0000  0.0000 </r>
        <r>  0.0017  0.0013  0.0322  0.0186  0.0000  0.0000  0.0000  0.0000  0.0000 </r>
        <r>  0.0017  0.0010  0.0410  0.0140  0.0000  0.0000  0.0000  0.0000  0.0000 </r>
        <r>  0.0002  0.0001  0.0052  0.0015  0.0000  0.0000  0.0000  0.0000  0.0000 </r>
        <r>  0.0001  0.0001  0.0041  0.0022  0.0000  0.0000  0.0000  0.0000  0.0000 </r>
        <r>  0.0002  0.0001  0.0044  0.0014  0.0000  0.0000  0.0000  0.0000  0.0000 </r>
        <r>  0.0001  0.0001  0.0029  0.0021  0.0000  0.0000  0.0000  0.0000  0.0000 </r>
       </set>
       <set comment="band 39">
        <r>  0.0033  0.0025  0.0699  0.0032  0.0000  0.0000  0.0000  0.0000  0.0000 </r>
        <r>  0.0003  0.0003  0.0070  0.0319  0.0000  0.0000  0.0000  0.0000  0.0000 </r>
        <r>  0.0038  0.0020  0.0743  0.0034  0.0000  0.0000  0.0000  0.0000  0.0000 </r>
        <r>  0.0004  0.0002  0.0073  0.0340  0.0000  0.0000  0.0000  0.0000  0.0000 </r>
        <r>  0.0000  0.0000  0.0000  0.0000  0.0000  0.0000  0.0000  0.0000  0.0000 </r>
        <r>  0.0000  0.0000  0.0002  0.0000  0.0000  0.0000  0.0000  0.0000  0.0000 </r>
        <r>  0.0000  0.0000  0.0000  0.0000  0.0000  0.0000  0.0000  0.0000  0.0000 </r>
        <r>  0.0000  0.0000  0.0001  0.0000  0.0000  0.0000  0.0000  0.0000  0.0000 </r>
        <r>  0.0031  0.0017  0.0599  0.0046  0.0000  0.0000  0.0000  0.0000  0.0000 </r>
        <r>  0.0005  0.0003  0.0102  0.0276  0.0000  0.0000  0.0000  0.0000  0.0000 </r>
        <r>  0.0027  0.0021  0.0569  0.0044  0.0000  0.0000  0.0000  0.0000  0.0000 </r>
        <r>  0.0005  0.0003  0.0095  0.0259  0.0000  0.0000  0.0000  0.0000  0.0000 </r>
       </set>
       <set comment="band 40">
        <r>  0.0016  0.0009  0.0361  0.0010  0.0000  0.0000  0.0000  0.0000  0.0000 </r>
        <r>  0.0001  0.0000  0.0020  0.0171  0.0000  0.0000  0.0000  0.0000  0.0000 </r>
        <r>  0.0016  0.0009  0.0414  0.0010  0.0000  0.0000  0.0000  0.0000  0.0000 </r>
        <r>  0.0001  0.0000  0.0027  0.0179  0.0000  0.0000  0.0000  0.0000  0.0000 </r>
        <r>  0.0000  0.0001  0.0000  0.0000  0.0000  0.0000  0.0000  0.0000  0.0000 </r>
        <r>  0.0000  0.0002  0.0001  0.0000  0.0000  0.0000  0.0000  0.0000  0.0000 </r>
        <r>  0.0000  0.0002  0.0001  0.0000  0.0000  0.0000  0.0000  0.0000  0.0000 </r>
        <r>  0.0000  0.0002  0.0001  0.0000  0.0000  0.0000  0.0000  0.0000  0.0000 </r>
        <r>  0.0012  0.0006  0.0308  0.0373  0.0000  0.0000  0.0000  0.0000  0.0000 </r>
        <r>  0.0037  0.0020  0.0844  0.0132  0.0000  0.0000  0.0000  0.0000  0.0000 </r>
        <r>  0.0012  0.0006  0.0265  0.0353  0.0000  0.0000  0.0000  0.0000  0.0000 </r>
        <r>  0.0035  0.0022  0.0759  0.0126  0.0000  0.0000  0.0000  0.0000  0.0000 </r>
       </set>
      </set>
     </set>
    </set>
   </array>
  </projected>
 </calculation>
 <structure name="finalpos" >
  <crystal>
   <varray name="basis" >
    <v>       3.34288600       0.00000000       0.00000000 </v>
    <v>       0.00000000      32.60240900       0.00000000 </v>
    <v>       0.00000000       0.00000000       4.37483100 </v>
   </varray>
   <i name="volume">    476.79592902 </i>
   <varray name="rec_basis" >
    <v>       0.29914272       0.00000000       0.00000000 </v>
    <v>       0.00000000       0.03067258       0.00000000 </v>
    <v>       0.00000000       0.00000000       0.22858026 </v>
   </varray>
  </crystal>
  <varray name="positions" >
   <v>       0.00000000       0.30672600       0.91892400 </v>
   <v>       0.50000000       0.30672600       0.58107600 </v>
   <v>       0.00000000       0.37246700       0.08107600 </v>
   <v>       0.50000000       0.37246700       0.41892400 </v>
   <v>       0.50000000       0.46712900       0.91892400 </v>
   <v>       0.00000000       0.46712900       0.58107600 </v>
   <v>       0.50000000       0.53287100       0.08107600 </v>
   <v>       0.00000000       0.53287100       0.41892400 </v>
   <v>       0.00000000       0.62753300       0.91892400 </v>
   <v>       0.50000000       0.62753300       0.58107600 </v>
   <v>       0.00000000       0.69327400       0.08107600 </v>
   <v>       0.50000000       0.69327400       0.41892400 </v>
  </varray>
 </structure>
</modeling>
