Generic Input                           
   1.00000000000000     
     3.342886    0.000000    0.000000
     0.000000   32.602409    0.000000
     0.000000    0.000000    4.374831
   P 
    12
Direct
  0.000000  0.306726  0.918924
  0.500000  0.306726  0.581076
  0.000000  0.372467  0.081076
  0.500000  0.372467  0.418924
  0.500000  0.467129  0.918924
  0.000000  0.467129  0.581076
  0.500000  0.532871  0.081076
  0.000000  0.532871  0.418924
  0.000000  0.627533  0.918924
  0.500000  0.627533  0.581076
  0.000000  0.693274  0.081076
  0.500000  0.693274  0.418924
 
   28  280   40
 -.63436E-03 -.68623E-03 -.82250E-03 -.99540E-03 -.11526E-02 -.12582E-02 -.12943E-02 -.12434E-02 -.10671E-02 -.70966E-03
 -.13638E-03 0.61203E-03 0.13920E-02 0.19910E-02 0.22166E-02 0.19910E-02 0.13920E-02 0.61203E-03 -.13638E-03 -.70966E-03
 -.10671E-02 -.12434E-02 -.12943E-02 -.12582E-02 -.11526E-02 -.99540E-03 -.82250E-03 -.68623E-03 -.14698E-02 -.14678E-02
 -.14622E-02 -.14546E-02 -.14469E-02 -.14404E-02 -.14358E-02 -.14329E-02 -.14302E-02 -.14257E-02 -.14185E-02 -.14097E-02
 -.14014E-02 -.13957E-02 -.13937E-02 -.13957E-02 -.14014E-02 -.14097E-02 -.14185E-02 -.14257E-02 -.14302E-02 -.14329E-02
 -.14358E-02 -.14404E-02 -.14469E-02 -.14546E-02 -.14622E-02 -.14678E-02 -.22294E-02 -.21776E-02 -.20410E-02 -.18669E-02
 -.17069E-02 -.15977E-02 -.15584E-02 -.16082E-02 -.17847E-02 -.21421E-02 -.27144E-02 -.34615E-02 -.42414E-02 -.48415E-02
 -.50678E-02 -.48415E-02 -.42414E-02 -.34615E-02 -.27144E-02 -.21421E-02 -.17847E-02 -.16082E-02 -.15584E-02 -.15977E-02
 -.17069E-02 -.18669E-02 -.20410E-02 -.21776E-02 -.12696E-02 -.12771E-02 -.12964E-02 -.13206E-02 -.13420E-02 -.13565E-02
 -.13650E-02 -.13717E-02 -.13809E-02 -.13955E-02 -.14158E-02 -.14402E-02 -.14649E-02 -.14838E-02 -.14909E-02 -.14838E-02
 -.14649E-02 -.14402E-02 -.14158E-02 -.13955E-02 -.13809E-02 -.13717E-02 -.13650E-02 -.13565E-02 -.13420E-02 -.13206E-02
 -.12964E-02 -.12771E-02 -.45758E-03 -.51286E-03 -.65824E-03 -.84300E-03 -.10112E-02 -.11242E-02 -.11637E-02 -.11139E-02
 -.93898E-03 -.58421E-03 -.14043E-04 0.73259E-03 0.15129E-02 0.21135E-02 0.23399E-02 0.21135E-02 0.15129E-02 0.73259E-03
 -.14043E-04 -.58421E-03 -.93898E-03 -.11139E-02 -.11637E-02 -.11242E-02 -.10112E-02 -.84300E-03 -.65824E-03 -.51286E-03
 -.13668E-02 -.13582E-02 -.13357E-02 -.13077E-02 -.12821E-02 -.12628E-02 -.12493E-02 -.12377E-02 -.12238E-02 -.12029E-02
 -.11721E-02 -.11325E-02 -.10908E-02 -.10583E-02 -.10460E-02 -.10583E-02 -.10908E-02 -.11325E-02 -.11721E-02 -.12029E-02
 -.12238E-02 -.12377E-02 -.12493E-02 -.12628E-02 -.12821E-02 -.13077E-02 -.13357E-02 -.13582E-02 -.20272E-02 -.19706E-02
 -.18222E-02 -.16347E-02 -.14648E-02 -.13506E-02 -.13094E-02 -.13574E-02 -.15313E-02 -.18862E-02 -.24573E-02 -.32045E-02
 -.39848E-02 -.45850E-02 -.48112E-02 -.45850E-02 -.39848E-02 -.32045E-02 -.24573E-02 -.18862E-02 -.15313E-02 -.13574E-02
 -.13094E-02 -.13506E-02 -.14648E-02 -.16347E-02 -.18222E-02 -.19706E-02 -.92238E-03 -.93122E-03 -.95467E-03 -.98513E-03
 -.10143E-02 -.10368E-02 -.10526E-02 -.10659E-02 -.10834E-02 -.11119E-02 -.11552E-02 -.12111E-02 -.12696E-02 -.13148E-02
 -.13319E-02 -.13148E-02 -.12696E-02 -.12111E-02 -.11552E-02 -.11119E-02 -.10834E-02 -.10659E-02 -.10526E-02 -.10368E-02
 -.10143E-02 -.98513E-03 -.95467E-03 -.93122E-03 -.97205E-04 -.15228E-03 -.29691E-03 -.48018E-03 -.64642E-03 -.75756E-03
 -.79602E-03 -.74594E-03 -.57104E-03 -.21627E-03 0.35406E-03 0.11009E-02 0.18814E-02 0.24821E-02 0.27085E-02 0.24821E-02
 0.18814E-02 0.11009E-02 0.35406E-03 -.21627E-03 -.57104E-03 -.74594E-03 -.79602E-03 -.75756E-03 -.64642E-03 -.48018E-03
 -.29691E-03 -.15228E-03 -.99265E-03 -.98198E-03 -.95371E-03 -.91693E-03 -.88108E-03 -.85183E-03 -.82972E-03 -.81086E-03
 -.78821E-03 -.75331E-03 -.69984E-03 -.62901E-03 -.55329E-03 -.49388E-03 -.47125E-03 -.49388E-03 -.55329E-03 -.62901E-03
 -.69984E-03 -.75331E-03 -.78821E-03 -.81086E-03 -.82972E-03 -.85183E-03 -.88108E-03 -.91693E-03 -.95371E-03 -.98198E-03
 -.15030E-02 -.14507E-02 -.13134E-02 -.11392E-02 -.98072E-03 -.87357E-03 -.83559E-03 -.88499E-03 -.10606E-02 -.14180E-02
 -.19914E-02 -.27400E-02 -.35200E-02 -.41192E-02 -.43449E-02 -.41192E-02 -.35200E-02 -.27400E-02 -.19914E-02 -.14180E-02
 -.10606E-02 -.88499E-03 -.83559E-03 -.87357E-03 -.98072E-03 -.11392E-02 -.13134E-02 -.14507E-02 -.30118E-03 -.31667E-03
 -.35781E-03 -.41134E-03 -.46270E-03 -.50263E-03 -.53045E-03 -.55297E-03 -.58112E-03 -.62588E-03 -.69376E-03 -.78173E-03
 -.87415E-03 -.94589E-03 -.97309E-03 -.94589E-03 -.87415E-03 -.78173E-03 -.69376E-03 -.62588E-03 -.58112E-03 -.55297E-03
 -.53045E-03 -.50263E-03 -.46270E-03 -.41134E-03 -.35781E-03 -.31667E-03 0.41777E-03 0.36640E-03 0.23134E-03 0.59655E-04
 -.96906E-04 -.20242E-03 -.23887E-03 -.18818E-03 -.11763E-04 0.34620E-03 0.92021E-03 0.16692E-02 0.24493E-02 0.30481E-02
 0.32736E-02 0.30481E-02 0.24493E-02 0.16692E-02 0.92021E-03 0.34620E-03 -.11763E-04 -.18818E-03 -.23887E-03 -.20242E-03
 -.96906E-04 0.59655E-04 0.23134E-03 0.36640E-03 -.54931E-03 -.52808E-03 -.47191E-03 -.39930E-03 -.33025E-03 -.27711E-03
 -.24063E-03 -.21182E-03 -.17672E-03 -.12184E-03 -.39665E-04 0.65628E-04 0.17516E-03 0.25959E-03 0.29148E-03 0.25959E-03
 0.17516E-03 0.65628E-04 -.39665E-04 -.12184E-03 -.17672E-03 -.21182E-03 -.24063E-03 -.27711E-03 -.33025E-03 -.39930E-03
 -.47191E-03 -.52808E-03 -.88514E-03 -.83258E-03 -.69412E-03 -.51756E-03 -.35590E-03 -.24631E-03 -.20726E-03 -.25644E-03
 -.43178E-03 -.78884E-03 -.13622E-02 -.21106E-02 -.28903E-02 -.34887E-02 -.37140E-02 -.34887E-02 -.28903E-02 -.21106E-02
 -.13622E-02 -.78884E-03 -.43178E-03 -.25644E-03 -.20726E-03 -.24631E-03 -.35590E-03 -.51756E-03 -.69412E-03 -.83258E-03
 0.50274E-03 0.47633E-03 0.40704E-03 0.31891E-03 0.23692E-03 0.17533E-03 0.13374E-03 0.10056E-03 0.59357E-04 -.51045E-05
 -.10090E-03 -.22272E-03 -.34871E-03 -.44543E-03 -.48189E-03 -.44543E-03 -.34871E-03 -.22272E-03 -.10090E-03 -.51045E-05
 0.59357E-04 0.10056E-03 0.13374E-03 0.17533E-03 0.23692E-03 0.31891E-03 0.40704E-03 0.47633E-03 0.11533E-02 0.10972E-02
 0.94990E-03 0.76359E-03 0.59519E-03 0.48301E-03 0.44359E-03 0.49189E-03 0.66487E-03 0.10193E-02 0.15914E-02 0.23400E-02
 0.31201E-02 0.37187E-02 0.39440E-02 0.37187E-02 0.31201E-02 0.23400E-02 0.15914E-02 0.10193E-02 0.66487E-03 0.49189E-03
 0.44359E-03 0.48301E-03 0.59519E-03 0.76359E-03 0.94990E-03 0.10972E-02 0.49571E-04 0.77179E-04 0.14975E-03 0.24285E-03
 0.33151E-03 0.40088E-03 0.44936E-03 0.48677E-03 0.53088E-03 0.60134E-03 0.70967E-03 0.84924E-03 0.99280E-03 0.11017E-02
 0.11424E-02 0.11017E-02 0.99280E-03 0.84924E-03 0.70967E-03 0.60134E-03 0.53088E-03 0.48677E-03 0.44936E-03 0.40088E-03
 0.33151E-03 0.24285E-03 0.14975E-03 0.77179E-04 -.22709E-03 -.17046E-03 -.22301E-04 0.16463E-03 0.33429E-03 0.44947E-03
 0.49236E-03 0.44528E-03 0.27072E-03 -.85303E-04 -.65635E-03 -.14027E-02 -.21824E-02 -.27828E-02 -.30093E-02 -.27828E-02
 -.21824E-02 -.14027E-02 -.65635E-03 -.85303E-04 0.27072E-03 0.44528E-03 0.49236E-03 0.44947E-03 0.33429E-03 0.16463E-03
 -.22301E-04 -.17046E-03 0.12621E-02 0.12332E-02 0.11562E-02 0.10561E-02 0.96086E-03 0.88825E-03 0.83912E-03 0.79958E-03
 0.74908E-03 0.66882E-03 0.54890E-03 0.39539E-03 0.23513E-03 0.11097E-03 0.63902E-04 0.11097E-03 0.23513E-03 0.39539E-03
 0.54890E-03 0.66882E-03 0.74908E-03 0.79958E-03 0.83912E-03 0.88825E-03 0.96086E-03 0.10561E-02 0.11562E-02 0.12332E-02
 0.18356E-02 0.17807E-02 0.16360E-02 0.14527E-02 0.12870E-02 0.11775E-02 0.11407E-02 0.11908E-02 0.13642E-02 0.17180E-02
 0.22895E-02 0.30380E-02 0.38183E-02 0.44169E-02 0.46421E-02 0.44169E-02 0.38183E-02 0.30380E-02 0.22895E-02 0.17180E-02
 0.13642E-02 0.11908E-02 0.11407E-02 0.11775E-02 0.12870E-02 0.14527E-02 0.16360E-02 0.17807E-02 0.65748E-03 0.68947E-03
 0.77387E-03 0.88302E-03 0.98839E-03 0.10725E-02 0.11327E-02 0.11796E-02 0.12336E-02 0.13188E-02 0.14504E-02 0.16218E-02
 0.17998E-02 0.19358E-02 0.19869E-02 0.19358E-02 0.17998E-02 0.16218E-02 0.14504E-02 0.13188E-02 0.12336E-02 0.11796E-02
 0.11327E-02 0.10725E-02 0.98839E-03 0.88302E-03 0.77387E-03 0.68947E-03 0.50321E-03 0.55530E-03 0.69169E-03 0.86404E-03
 0.10207E-02 0.11272E-02 0.11656E-02 0.11168E-02 0.94098E-03 0.58278E-03 0.87616E-05 -.73989E-03 -.15202E-02 -.21199E-02
 -.23458E-02 -.21199E-02 -.15202E-02 -.73989E-03 0.87616E-05 0.58278E-03 0.94098E-03 0.11168E-02 0.11656E-02 0.11272E-02
 0.10207E-02 0.86404E-03 0.69169E-03 0.55530E-03 0.20577E-02 0.20194E-02 0.19176E-02 0.17850E-02 0.16577E-02 0.15591E-02
 0.14921E-02 0.14410E-02 0.13797E-02 0.12826E-02 0.11357E-02 0.94709E-03 0.75136E-03 0.60103E-03 0.54436E-03 0.60103E-03
 0.75136E-03 0.94709E-03 0.11357E-02 0.12826E-02 0.13797E-02 0.14410E-02 0.14921E-02 0.15591E-02 0.16577E-02 0.17850E-02
 0.19176E-02 0.20194E-02 0.24082E-02 0.23572E-02 0.22226E-02 0.20511E-02 0.18943E-02 0.17882E-02 0.17514E-02 0.18018E-02
 0.19776E-02 0.23350E-02 0.29086E-02 0.36576E-02 0.44381E-02 0.50373E-02 0.52629E-02 0.50373E-02 0.44381E-02 0.36576E-02
 0.29086E-02 0.23350E-02 0.19776E-02 0.18018E-02 0.17514E-02 0.17882E-02 0.18943E-02 0.20511E-02 0.22226E-02 0.23572E-02
 0.10299E-02 0.10760E-02 0.11976E-02 0.13543E-02 0.15034E-02 0.16184E-02 0.16968E-02 0.17558E-02 0.18239E-02 0.19300E-02
 0.20907E-02 0.22974E-02 0.25116E-02 0.26756E-02 0.27373E-02 0.26756E-02 0.25116E-02 0.22974E-02 0.20907E-02 0.19300E-02
 0.18239E-02 0.17558E-02 0.16968E-02 0.16184E-02 0.15034E-02 0.13543E-02 0.11976E-02 0.10760E-02 0.10120E-02 0.10651E-02
 0.12047E-02 0.13820E-02 0.15443E-02 0.16554E-02 0.16966E-02 0.16489E-02 0.14732E-02 0.11147E-02 0.54028E-03 -.20828E-03
 -.98765E-03 -.15860E-02 -.18114E-02 -.15860E-02 -.98765E-03 -.20828E-03 0.54028E-03 0.11147E-02 0.14732E-02 0.16489E-02
 0.16966E-02 0.16554E-02 0.15443E-02 0.13820E-02 0.12047E-02 0.10651E-02 0.27308E-02 0.26787E-02 0.25409E-02 0.23633E-02
 0.21957E-02 0.20690E-02 0.19854E-02 0.19229E-02 0.18480E-02 0.17297E-02 0.15526E-02 0.13279E-02 0.10969E-02 0.92045E-03
 0.85414E-03 0.92045E-03 0.10969E-02 0.13279E-02 0.15526E-02 0.17297E-02 0.18480E-02 0.19229E-02 0.19854E-02 0.20690E-02
 0.21957E-02 0.23633E-02 0.25409E-02 0.26787E-02 0.28963E-02 0.28402E-02 0.26924E-02 0.25045E-02 0.23337E-02 0.22195E-02
 0.21798E-02 0.22297E-02 0.24045E-02 0.27596E-02 0.33307E-02 0.40783E-02 0.48585E-02 0.54582E-02 0.56840E-02 0.54582E-02
 0.48585E-02 0.40783E-02 0.33307E-02 0.27596E-02 0.24045E-02 0.22297E-02 0.21798E-02 0.22195E-02 0.23337E-02 0.25045E-02
 0.26924E-02 0.28402E-02 0.12528E-02 0.13083E-02 0.14544E-02 0.16419E-02 0.18195E-02 0.19564E-02 0.20500E-02 0.21210E-02
 0.22026E-02 0.23286E-02 0.25178E-02 0.27599E-02 0.30100E-02 0.32010E-02 0.32727E-02 0.32010E-02 0.30100E-02 0.27599E-02
 0.25178E-02 0.23286E-02 0.22026E-02 0.21210E-02 0.20500E-02 0.19564E-02 0.18195E-02 0.16419E-02 0.14544E-02 0.13083E-02
 0.12728E-02 0.13294E-02 0.14776E-02 0.16647E-02 0.18341E-02 0.19480E-02 0.19896E-02 0.19426E-02 0.17696E-02 0.14153E-02
 0.84484E-03 0.98278E-04 -.68119E-03 -.12806E-02 -.15065E-02 -.12806E-02 -.68119E-03 0.98278E-04 0.84484E-03 0.14153E-02
 0.17696E-02 0.19426E-02 0.19896E-02 0.19480E-02 0.18341E-02 0.16647E-02 0.14776E-02 0.13294E-02 0.30781E-02 0.30191E-02
 0.28631E-02 0.26614E-02 0.24691E-02 0.23210E-02 0.22209E-02 0.21463E-02 0.20605E-02 0.19267E-02 0.17247E-02 0.14656E-02
 0.11978E-02 0.99292E-03 0.91589E-03 0.99292E-03 0.11978E-02 0.14656E-02 0.17247E-02 0.19267E-02 0.20605E-02 0.21463E-02
 0.22209E-02 0.23210E-02 0.24691E-02 0.26614E-02 0.28631E-02 0.30191E-02 0.30276E-02 0.29731E-02 0.28303E-02 0.26496E-02
 0.24859E-02 0.23765E-02 0.23384E-02 0.23881E-02 0.25626E-02 0.29171E-02 0.34872E-02 0.42334E-02 0.50130E-02 0.56129E-02
 0.58390E-02 0.56129E-02 0.50130E-02 0.42334E-02 0.34872E-02 0.29171E-02 0.25626E-02 0.23881E-02 0.23384E-02 0.23765E-02
 0.24859E-02 0.26496E-02 0.28303E-02 0.29731E-02 0.11753E-02 0.12409E-02 0.14140E-02 0.16377E-02 0.18511E-02 0.20164E-02
 0.21290E-02 0.22119E-02 0.23042E-02 0.24458E-02 0.26599E-02 0.29357E-02 0.32222E-02 0.34418E-02 0.35245E-02 0.34418E-02
 0.32222E-02 0.29357E-02 0.26599E-02 0.24458E-02 0.23042E-02 0.22119E-02 0.21290E-02 0.20164E-02 0.18511E-02 0.16377E-02
 0.14140E-02 0.12409E-02 0.13457E-02 0.13983E-02 0.15358E-02 0.17087E-02 0.18648E-02 0.19699E-02 0.20068E-02 0.19568E-02
 0.17806E-02 0.14232E-02 0.85120E-03 0.10468E-03 -.67443E-03 -.12740E-02 -.15000E-02 -.12740E-02 -.67443E-03 0.10468E-03
 0.85120E-03 0.14232E-02 0.17806E-02 0.19568E-02 0.20068E-02 0.19699E-02 0.18648E-02 0.17087E-02 0.15358E-02 0.13983E-02
 0.32554E-02 0.31817E-02 0.29859E-02 0.27305E-02 0.24854E-02 0.22961E-02 0.21695E-02 0.20778E-02 0.19765E-02 0.18233E-02
 0.15950E-02 0.13029E-02 0.99910E-03 0.76498E-03 0.67653E-03 0.76498E-03 0.99910E-03 0.13029E-02 0.15950E-02 0.18233E-02
 0.19765E-02 0.20778E-02 0.21695E-02 0.22961E-02 0.24854E-02 0.27305E-02 0.29859E-02 0.31817E-02 0.28446E-02 0.27943E-02
 0.26613E-02 0.24907E-02 0.23335E-02 0.22268E-02 0.21892E-02 0.22387E-02 0.24137E-02 0.27707E-02 0.33449E-02 0.40952E-02
 0.48764E-02 0.54756E-02 0.57010E-02 0.54756E-02 0.48764E-02 0.40952E-02 0.33449E-02 0.27707E-02 0.24137E-02 0.22387E-02
 0.21892E-02 0.22268E-02 0.23335E-02 0.24907E-02 0.26613E-02 0.27943E-02 0.65499E-03 0.74085E-03 0.96739E-03 0.12591E-02
 0.15359E-02 0.17483E-02 0.18903E-02 0.19910E-02 0.20988E-02 0.22614E-02 0.25058E-02 0.28192E-02 0.31432E-02 0.33908E-02
 0.34838E-02 0.33908E-02 0.31432E-02 0.28192E-02 0.25058E-02 0.22614E-02 0.20988E-02 0.19910E-02 0.18903E-02 0.17483E-02
 0.15359E-02 0.12591E-02 0.96739E-03 0.74085E-03 0.10522E-02 0.11045E-02 0.12418E-02 0.14159E-02 0.15755E-02 0.16854E-02
 0.17268E-02 0.16794E-02 0.15032E-02 0.11433E-02 0.56686E-03 -.18445E-03 -.96752E-03 -.15695E-02 -.17963E-02 -.15695E-02
 -.96752E-03 -.18445E-03 0.56686E-03 0.11433E-02 0.15032E-02 0.16794E-02 0.17268E-02 0.16854E-02 0.15755E-02 0.14159E-02
 0.12418E-02 0.11045E-02 0.32543E-02 0.31571E-02 0.28998E-02 0.25674E-02 0.22531E-02 0.20161E-02 0.18630E-02 0.17567E-02
 0.16404E-02 0.14630E-02 0.11985E-02 0.86158E-03 0.51340E-03 0.24632E-03 0.14567E-03 0.24632E-03 0.51340E-03 0.86158E-03
 0.11985E-02 0.14630E-02 0.16404E-02 0.17567E-02 0.18630E-02 0.20161E-02 0.22531E-02 0.25674E-02 0.28998E-02 0.31571E-02
 0.25633E-02 0.25060E-02 0.23546E-02 0.21609E-02 0.19839E-02 0.18657E-02 0.18256E-02 0.18776E-02 0.20554E-02 0.24128E-02
 0.29851E-02 0.37322E-02 0.45105E-02 0.51077E-02 0.53324E-02 0.51077E-02 0.45105E-02 0.37322E-02 0.29851E-02 0.24128E-02
 0.20554E-02 0.18776E-02 0.18256E-02 0.18657E-02 0.19839E-02 0.21609E-02 0.23546E-02 0.25060E-02 0.40901E-06 0.10425E-03
 0.37726E-03 0.72665E-03 0.10557E-02 0.13069E-02 0.14747E-02 0.15947E-02 0.17222E-02 0.19113E-02 0.21919E-02 0.25491E-02
 0.29166E-02 0.31966E-02 0.33017E-02 0.31966E-02 0.29166E-02 0.25491E-02 0.21919E-02 0.19113E-02 0.17222E-02 0.15947E-02
 0.14747E-02 0.13069E-02 0.10557E-02 0.72665E-03 0.37726E-03 0.10425E-03 0.61820E-03 0.67675E-03 0.82864E-03 0.10169E-02
 0.11832E-02 0.12911E-02 0.13259E-02 0.12721E-02 0.10935E-02 0.73671E-03 0.16843E-03 -.57209E-03 -.13448E-02 -.19396E-02
 -.21639E-02 -.19396E-02 -.13448E-02 -.57209E-03 0.16843E-03 0.73671E-03 0.10935E-02 0.12721E-02 0.13259E-02 0.12911E-02
 0.11832E-02 0.10169E-02 0.82864E-03 0.67675E-03 0.31708E-02 0.30618E-02 0.27713E-02 0.23907E-02 0.20216E-02 0.17317E-02
 0.15327E-02 0.13885E-02 0.12397E-02 0.10308E-02 0.73308E-03 0.36141E-03 -.19250E-04 -.31002E-03 -.41941E-03 -.31002E-03
 -.19250E-04 0.36141E-03 0.73308E-03 0.10308E-02 0.12397E-02 0.13885E-02 0.15327E-02 0.17317E-02 0.20216E-02 0.23907E-02
 0.27713E-02 0.30618E-02 0.23132E-02 0.22627E-02 0.21276E-02 0.19505E-02 0.17808E-02 0.16558E-02 0.15960E-02 0.16207E-02
 0.17690E-02 0.20989E-02 0.26490E-02 0.33813E-02 0.41521E-02 0.47471E-02 0.49716E-02 0.47471E-02 0.41521E-02 0.33813E-02
 0.26490E-02 0.20989E-02 0.17690E-02 0.16207E-02 0.15960E-02 0.16558E-02 0.17808E-02 0.19505E-02 0.21276E-02 0.22627E-02
 -.33184E-03 -.20490E-03 0.12874E-03 0.55436E-03 0.95057E-03 0.12432E-02 0.14243E-02 0.15371E-02 0.16485E-02 0.18225E-02
 0.20955E-02 0.24563E-02 0.28367E-02 0.31312E-02 0.32426E-02 0.31312E-02 0.28367E-02 0.24563E-02 0.20955E-02 0.18225E-02
 0.16485E-02 0.15371E-02 0.14243E-02 0.12432E-02 0.95057E-03 0.55436E-03 0.12874E-03 -.20490E-03 0.10088E-02 0.10582E-02
 0.11867E-02 0.13458E-02 0.14837E-02 0.15662E-02 0.15780E-02 0.15024E-02 0.12997E-02 0.91176E-03 0.30322E-03 -.48232E-03
 -.12955E-02 -.19175E-02 -.21512E-02 -.19175E-02 -.12955E-02 -.48232E-03 0.30322E-03 0.91176E-03 0.12997E-02 0.15024E-02
 0.15780E-02 0.15662E-02 0.14837E-02 0.13458E-02 0.11867E-02 0.10582E-02 0.43736E-02 0.42238E-02 0.38270E-02 0.33115E-02
 0.28158E-02 0.24289E-02 0.21668E-02 0.19851E-02 0.18083E-02 0.15623E-02 0.12064E-02 0.75814E-03 0.29924E-03 -.49609E-04
 -.18033E-03 -.49609E-04 0.29924E-03 0.75814E-03 0.12064E-02 0.15623E-02 0.18083E-02 0.19851E-02 0.21668E-02 0.24289E-02
 0.28158E-02 0.33115E-02 0.38270E-02 0.42238E-02 0.36574E-02 0.35922E-02 0.34187E-02 0.31913E-02 0.29702E-02 0.27990E-02
 0.27022E-02 0.27018E-02 0.28352E-02 0.31535E-02 0.36875E-02 0.43974E-02 0.51451E-02 0.57232E-02 0.59416E-02 0.57232E-02
 0.51451E-02 0.43974E-02 0.36875E-02 0.31535E-02 0.28352E-02 0.27018E-02 0.27022E-02 0.27990E-02 0.29702E-02 0.31913E-02
 0.34187E-02 0.35922E-02 0.15186E-02 0.16597E-02 0.20278E-02 0.24888E-02 0.29005E-02 0.31778E-02 0.33157E-02 0.33721E-02
 0.34317E-02 0.35722E-02 0.38358E-02 0.42078E-02 0.46106E-02 0.49259E-02 0.50456E-02 0.49259E-02 0.46106E-02 0.42078E-02
 0.38358E-02 0.35722E-02 0.34317E-02 0.33721E-02 0.33157E-02 0.31778E-02 0.29005E-02 0.24888E-02 0.20278E-02 0.16597E-02
 0.49393E-02 0.49673E-02 0.50321E-02 0.50883E-02 0.50903E-02 0.50118E-02 0.48438E-02 0.45779E-02 0.41888E-02 0.36382E-02
 0.29064E-02 0.20401E-02 0.11800E-02 0.53403E-03 0.29283E-03 0.53403E-03 0.11800E-02 0.20401E-02 0.29064E-02 0.36382E-02
 0.41888E-02 0.45779E-02 0.48438E-02 0.50118E-02 0.50903E-02 0.50883E-02 0.50321E-02 0.49673E-02 0.11098E-01 0.10888E-01
 0.10321E-01 0.95546E-02 0.87635E-02 0.80614E-02 0.74716E-02 0.69495E-02 0.64289E-02 0.58601E-02 0.52289E-02 0.45668E-02
 0.39559E-02 0.35145E-02 0.33523E-02 0.35145E-02 0.39559E-02 0.45668E-02 0.52289E-02 0.58601E-02 0.64289E-02 0.69495E-02
 0.74716E-02 0.80614E-02 0.87635E-02 0.95546E-02 0.10321E-01 0.10888E-01 0.12742E-01 0.12649E-01 0.12389E-01 0.12014E-01
 0.11580E-01 0.11127E-01 0.10681E-01 0.10276E-01 0.99782E-02 0.98829E-02 0.10061E-01 0.10494E-01 0.11049E-01 0.11514E-01
 0.11694E-01 0.11514E-01 0.11049E-01 0.10494E-01 0.10061E-01 0.98829E-02 0.99782E-02 0.10276E-01 0.10681E-01 0.11127E-01
 0.11580E-01 0.12014E-01 0.12389E-01 0.12649E-01 0.13871E-01 0.14013E-01 0.14368E-01 0.14766E-01 0.15026E-01 0.15035E-01
 0.14792E-01 0.14386E-01 0.13952E-01 0.13618E-01 0.13466E-01 0.13504E-01 0.13664E-01 0.13833E-01 0.13903E-01 0.13833E-01
 0.13664E-01 0.13504E-01 0.13466E-01 0.13618E-01 0.13952E-01 0.14386E-01 0.14792E-01 0.15035E-01 0.15026E-01 0.14766E-01
 0.14368E-01 0.14013E-01 0.23713E-01 0.23661E-01 0.23493E-01 0.23177E-01 0.22683E-01 0.22007E-01 0.21171E-01 0.20209E-01
 0.19136E-01 0.17943E-01 0.16629E-01 0.15253E-01 0.13985E-01 0.13070E-01 0.12734E-01 0.13070E-01 0.13985E-01 0.15253E-01
 0.16629E-01 0.17943E-01 0.19136E-01 0.20209E-01 0.21171E-01 0.22007E-01 0.22683E-01 0.23177E-01 0.23493E-01 0.23661E-01
 0.39720E-01 0.39304E-01 0.38149E-01 0.36492E-01 0.34603E-01 0.32691E-01 0.30858E-01 0.29127E-01 0.27476E-01 0.25876E-01
 0.24312E-01 0.22828E-01 0.21548E-01 0.20658E-01 0.20337E-01 0.20658E-01 0.21548E-01 0.22828E-01 0.24312E-01 0.25876E-01
 0.27476E-01 0.29127E-01 0.30858E-01 0.32691E-01 0.34603E-01 0.36492E-01 0.38149E-01 0.39304E-01 0.54621E-01 0.54252E-01
 0.53189E-01 0.51543E-01 0.49461E-01 0.47098E-01 0.44608E-01 0.42157E-01 0.39921E-01 0.38062E-01 0.36686E-01 0.35803E-01
 0.35328E-01 0.35126E-01 0.35075E-01 0.35126E-01 0.35328E-01 0.35803E-01 0.36686E-01 0.38062E-01 0.39921E-01 0.42157E-01
 0.44608E-01 0.47098E-01 0.49461E-01 0.51543E-01 0.53189E-01 0.54252E-01 0.74962E-01 0.74750E-01 0.74053E-01 0.72723E-01
 0.70639E-01 0.67802E-01 0.64381E-01 0.60674E-01 0.57021E-01 0.53717E-01 0.50958E-01 0.48837E-01 0.47362E-01 0.46502E-01
 0.46221E-01 0.46502E-01 0.47362E-01 0.48837E-01 0.50958E-01 0.53717E-01 0.57021E-01 0.60674E-01 0.64381E-01 0.67802E-01
 0.70639E-01 0.72723E-01 0.74053E-01 0.74750E-01 0.11314     0.11253     0.11073     0.10777     0.10374     0.98796E-01
 0.93170E-01 0.87164E-01 0.81088E-01 0.75210E-01 0.69755E-01 0.64961E-01 0.61133E-01 0.58628E-01 0.57752E-01 0.58628E-01
 0.61133E-01 0.64961E-01 0.69755E-01 0.75210E-01 0.81088E-01 0.87164E-01 0.93170E-01 0.98796E-01 0.10374     0.10777    
 0.11073     0.11253     0.16828     0.16702     0.16339     0.15779     0.15070     0.14257     0.13379     0.12471    
 0.11572     0.10722     0.99584E-01 0.93125E-01 0.88166E-01 0.85021E-01 0.83939E-01 0.85021E-01 0.88166E-01 0.93125E-01
 0.99584E-01 0.10722     0.11572     0.12471     0.13379     0.14257     0.15070     0.15779     0.16339     0.16702    
 0.23812     0.23649     0.23176     0.22428     0.21453     0.20303     0.19034     0.17714     0.16423     0.15244    
 0.14241     0.13457     0.12905     0.12581     0.12474     0.12581     0.12905     0.13457     0.14241     0.15244    
 0.16423     0.17714     0.19034     0.20303     0.21453     0.22428     0.23176     0.23649     0.34273     0.34042    
 0.33363     0.32272     0.30822     0.29084     0.27147     0.25125     0.23144     0.21326     0.19770     0.18538    
 0.17659     0.17136     0.16962     0.17136     0.17659     0.18538     0.19770     0.21326     0.23144     0.25125    
 0.27147     0.29084     0.30822     0.32272     0.33363     0.34042     0.51228     0.50801     0.49559     0.47613    
 0.45110     0.42207     0.39062     0.35834     0.32688     0.29776     0.27229     0.25147     0.23604     0.22655    
 0.22334     0.22655     0.23604     0.25147     0.27229     0.29776     0.32688     0.35834     0.39062     0.42207    
 0.45110     0.47613     0.49559     0.50801     0.76140     0.75420     0.73340     0.70115     0.66027     0.61361    
 0.56382     0.51335     0.46451     0.41947     0.38011     0.34791     0.32402     0.30929     0.30431     0.30929    
 0.32402     0.34791     0.38011     0.41947     0.46451     0.51335     0.56382     0.61361     0.66027     0.70115    
 0.73340     0.75420      1.1069      1.0964      1.0660      1.0184     0.95731     0.88690     0.81133     0.73463    
 0.66057     0.59256     0.53338     0.48522     0.44967     0.42786     0.42051     0.42786     0.44967     0.48522    
 0.53338     0.59256     0.66057     0.73463     0.81133     0.88690     0.95731      1.0184      1.0660      1.0964    
  1.6069      1.5916      1.5470      1.4764      1.3849      1.2785      1.1639      1.0476     0.93561     0.83290    
 0.74351     0.67053     0.61642     0.58309     0.57182     0.58309     0.61642     0.67053     0.74351     0.83290    
 0.93561      1.0476      1.1639      1.2785      1.3849      1.4764      1.5470      1.5916      2.3603      2.3364    
  2.2665      2.1559      2.0128      1.8472      1.6699      1.4914      1.3208      1.1656      1.0312     0.92184    
 0.84088     0.79104     0.77420     0.79104     0.84088     0.92184      1.0312      1.1656      1.3208      1.4914    
  1.6699      1.8472      2.0128      2.1559      2.2665      2.3364      3.4898      3.4519      3.3410      3.1658    
  2.9397      2.6792      2.4022      2.1256      1.8642      1.6292      1.4287      1.2681      1.1511      1.0799    
  1.0560      1.0799      1.1511      1.2681      1.4287      1.6292      1.8642      2.1256      2.4022      2.6792    
  2.9397      3.1658      3.3410      3.4519      5.1723      5.1127      4.9387      4.6636      4.3086      3.9003    
  3.4676      3.0380      2.6351      2.2768      1.9755      1.7382      1.5682      1.4664      1.4326      1.4664    
  1.5682      1.7382      1.9755      2.2768      2.6351      3.0380      3.4676      3.9003      4.3086      4.6636    
  4.9387      5.1127      7.6898      7.5954      7.3197      6.8852      6.3269      5.6881      5.0149      4.3501    
  3.7300      3.1819      2.7239      2.3663      2.1124      1.9616      1.9116      1.9616      2.1124      2.3663    
  2.7239      3.1819      3.7300      4.3501      5.0149      5.6881      6.3269      6.8852      7.3197      7.5954    
  11.444      11.292      10.850      10.158      9.2777      8.2807      7.2402      6.2213      5.2766      4.4449    
  3.7519      3.2116      2.8287      2.6014      2.5262      2.6014      2.8287      3.2116      3.7519      4.4449    
  5.2766      6.2213      7.2402      8.2807      9.2777      10.158      10.850      11.292      16.990      16.745    
  16.036      14.936      13.550      12.001      10.403      8.8567      7.4360      6.1933      5.1615      4.3581    
  3.7885      3.4500      3.3380      3.4500      3.7885      4.3581      5.1615      6.1933      7.4360      8.8567    
  10.403      12.001      13.550      14.936      16.036      16.745      25.180      24.787      23.652      21.904    
  19.725      17.316      14.867      12.530      10.411      8.5775      7.0673      5.8961      5.0665      4.5732    
  4.4097      4.5732      5.0665      5.8961      7.0673      8.5775      10.411      12.530      14.867      17.316    
  19.725      21.904      23.652      24.787      37.319      36.690      34.878      32.102      28.670      24.918    
  21.155      17.619      14.465      11.779      9.5954      7.9171      6.7336      6.0309      5.7981      6.0309    
  6.7336      7.9171      9.5954      11.779      14.465      17.619      21.155      24.918      28.670      32.102    
  34.878      36.690      55.167      54.169      51.304      46.932      41.562      35.744      29.976      24.631    
  19.945      16.027      12.896      10.524      8.8695      7.8927      7.5698      7.8927      8.8695      10.524    
  12.896      16.027      19.945      24.631      29.976      35.744      41.562      46.932      51.304      54.169    
  80.764      79.217      74.783      68.038      59.790      50.910      42.180      34.182      27.271      21.592    
  17.140      13.830      11.556      10.227      9.7903      10.227      11.556      13.830      17.140      21.592    
  27.271      34.182      42.180      50.910      59.790      68.038      74.783      79.217      116.20      113.87    
  107.20      97.078      84.747      71.536      58.628      46.900      36.877      28.757      22.500      17.932    
  14.847      13.069      12.489      13.069      14.847      17.932      22.500      28.757      36.877      46.900    
  58.628      71.536      84.747      97.078      107.20      113.87      163.30      159.89      150.14      135.40    
  117.52      98.475      79.966      63.259      49.095      37.739      29.102      22.893      18.763      16.414    
  15.653      16.414      18.763      22.893      29.102      37.739      49.095      63.259      79.966      98.475    
  117.52      135.40      150.14      159.89      222.97      218.13      204.33      183.55      158.50      131.96    
  106.35      83.366      64.005      48.596      36.981      28.722      23.294      20.239      19.256      20.239    
  23.294      28.722      36.981      48.596      64.005      83.366      106.35      131.96      158.50      183.55    
  204.33      218.13      292.84      286.61      268.51      240.61      206.81      171.26      137.16      106.76    
  81.282      61.115      46.003      35.332      28.376      24.491      23.245      24.491      28.376      35.332    
  46.003      61.115      81.282      106.76      137.16      171.26      206.81      240.61      268.51      286.61    
  355.37      349.33      330.93      300.28      259.57      214.30      170.82      132.26      100.10      74.737    
  55.800      42.482      33.841      29.036      27.501      29.036      33.841      42.482      55.800      74.737    
  100.10      132.26      170.82      214.30      259.57      300.28      330.93      349.33      386.95      383.36    
  370.86      345.92      306.89      257.02      204.72      158.00      119.14      88.558      65.766      49.765    
  39.404      33.654      31.819      33.654      39.404      49.765      65.766      88.558      119.14      158.00    
  204.72      257.02      306.89      345.92      370.86      383.36      373.54      374.67      374.36      364.10    
  336.57      291.10      235.30      181.56      136.72      101.42      75.119      56.653      44.696      38.062    
  35.945      38.062      44.696      56.653      75.119      101.42      136.72      181.56      235.30      291.10    
  336.57      364.10      374.36      374.67      318.18      325.52      341.60      352.29      343.67      310.22    
  257.77      200.43      151.07      112.11      83.019      62.568      49.313      41.951      39.600      41.951    
  49.313      62.568      83.019      112.11      151.07      200.43      257.77      310.22      343.67      352.29    
  341.60      325.52      241.87      255.40      288.00      320.36      332.51      314.24      269.34      212.56    
  160.74      119.57      88.711      66.968      52.850      44.998      42.488      44.998      52.850      66.968    
  88.711      119.57      160.74      212.56      269.34      314.24      332.51      320.36      288.00      255.40    
  176.44      194.26      238.42      286.30      314.00      308.13      270.87      216.92      164.88      123.13    
  91.680      69.451      54.986      46.926      44.346      46.926      54.986      69.451      91.680      123.13    
  164.88      216.92      270.87      308.13      314.00      286.30      238.42      194.26      150.73      169.38    
  215.95      267.51      299.70      298.44      265.17      214.02      163.51      122.66      91.767      69.857    
  55.565      47.589      45.034      47.589      55.565      69.857      91.767      122.66      163.51      214.02    