       N       E                     dE             d eps       ncg     rms          rms(c)
DAV:   1     0.299277961921E+03    0.29928E+03   -0.16795E+04   960   0.764E+02
DAV:   2    -0.316591309238E+02   -0.33094E+03   -0.31979E+03  1336   0.188E+02
DAV:   3    -0.635775835788E+02   -0.31918E+02   -0.31454E+02  1144   0.625E+01
DAV:   4    -0.647336085851E+02   -0.11560E+01   -0.11493E+01  1432   0.131E+01
DAV:   5    -0.647627817329E+02   -0.29173E-01   -0.29154E-01  1392   0.195E+00    0.178E+01
DAV:   6    -0.644386303349E+02    0.32415E+00   -0.19343E-01  1240   0.162E+00    0.105E+01
DAV:   7    -0.642904234180E+02    0.14821E+00   -0.35523E-01  1184   0.224E+00    0.447E-01
DAV:   8    -0.642902800218E+02    0.14340E-03   -0.30519E-02  1240   0.707E-01    0.227E-01
DAV:   9    -0.642902405491E+02    0.39473E-04   -0.16561E-03  1424   0.163E-01    0.198E-01
DAV:  10    -0.642900296164E+02    0.21093E-03   -0.35436E-04  1200   0.736E-02    0.141E-01
DAV:  11    -0.642898144416E+02    0.21517E-03   -0.38760E-04  1232   0.713E-02    0.539E-02
DAV:  12    -0.642898747573E+02   -0.60316E-04   -0.56432E-05  1184   0.284E-02    0.174E-02
DAV:  13    -0.642900636586E+02   -0.18890E-03   -0.81286E-05  1104   0.327E-02    0.363E-02
DAV:  14    -0.642901948191E+02   -0.13116E-03   -0.28030E-05  1048   0.175E-02    0.362E-02
DAV:  15    -0.642902175045E+02   -0.22685E-04   -0.21481E-06   768   0.647E-03    0.277E-02
DAV:  16    -0.642904667836E+02   -0.24928E-03   -0.21099E-05   944   0.146E-02    0.200E-02
DAV:  17    -0.642905115137E+02   -0.44730E-04   -0.38214E-06   848   0.686E-03    0.182E-02
DAV:  18    -0.642905175954E+02   -0.60817E-05   -0.46940E-07   744   0.302E-03
   1 F= -.66464457E+02 E0= -.66464457E+02  d E =-.668850E-07
