       N       E                     dE             d eps       ncg     rms          rms(c)
DAV:   1     0.334403350612E+03    0.33440E+03   -0.19197E+04   720   0.952E+02
DAV:   2    -0.266290355483E+02   -0.36103E+03   -0.34924E+03  1016   0.201E+02
DAV:   3    -0.634463087199E+02   -0.36817E+02   -0.36216E+02   888   0.672E+01
DAV:   4    -0.647402138194E+02   -0.12939E+01   -0.12858E+01  1048   0.139E+01
DAV:   5    -0.647802053841E+02   -0.39992E-01   -0.39963E-01  1064   0.228E+00    0.175E+01
DAV:   6    -0.644549340913E+02    0.32527E+00   -0.19730E-01   936   0.164E+00    0.104E+01
DAV:   7    -0.643063019380E+02    0.14863E+00   -0.36303E-01   880   0.227E+00    0.437E-01
DAV:   8    -0.643059597392E+02    0.34220E-03   -0.31833E-02   904   0.725E-01    0.232E-01
DAV:   9    -0.643059313049E+02    0.28434E-04   -0.18305E-03  1088   0.173E-01    0.192E-01
DAV:  10    -0.643056883746E+02    0.24293E-03   -0.38530E-04   872   0.764E-02    0.138E-01
DAV:  11    -0.643054565105E+02    0.23186E-03   -0.38307E-04   928   0.721E-02    0.398E-02
DAV:  12    -0.643055268993E+02   -0.70389E-04   -0.51964E-05   888   0.277E-02    0.156E-02
DAV:  13    -0.643057399007E+02   -0.21300E-03   -0.80687E-05   840   0.333E-02    0.272E-02
DAV:  14    -0.643058977450E+02   -0.15784E-03   -0.29102E-05   800   0.181E-02    0.277E-02
DAV:  15    -0.643059285728E+02   -0.30828E-04   -0.20863E-06   560   0.663E-03    0.208E-02
DAV:  16    -0.643061853350E+02   -0.25676E-03   -0.21593E-05   720   0.145E-02    0.161E-02
DAV:  17    -0.643062061176E+02   -0.20783E-04   -0.25273E-06   640   0.587E-03    0.149E-02
DAV:  18    -0.643062119323E+02   -0.58147E-05   -0.35712E-07   552   0.267E-03
   1 F= -.66480151E+02 E0= -.66480151E+02  d E =-.877050E-07
