  12  12   1   0
  0.3973299E+02  0.3342886E-09  0.3260241E-08  0.4374831E-09  0.5000000E-15
  1.000000000000000E-004
  CAR 
 Generic Input                           
      5.84293649    -15.93911939 2000      1.04887765      1.00000000
    -15.939  0.0000E+00  0.0000E+00
    -15.928  0.0000E+00  0.0000E+00
    -15.917  0.0000E+00  0.0000E+00
    -15.906  0.0000E+00  0.0000E+00
    -15.896  0.0000E+00  0.0000E+00
    -15.885  0.0000E+00  0.0000E+00
    -15.874  0.0000E+00  0.0000E+00
    -15.863  0.0000E+00  0.0000E+00
    -15.852  0.0000E+00  0.0000E+00
    -15.841  0.0000E+00  0.0000E+00
    -15.830  0.0000E+00  0.0000E+00
    -15.819  0.0000E+00  0.0000E+00
    -15.808  0.0000E+00  0.0000E+00
    -15.797  0.0000E+00  0.0000E+00
    -15.787  0.0000E+00  0.0000E+00
    -15.776  0.0000E+00  0.0000E+00
    -15.765  0.0000E+00  0.0000E+00
    -15.754  0.0000E+00  0.0000E+00
    -15.743  0.0000E+00  0.0000E+00
    -15.732  0.0000E+00  0.0000E+00
    -15.721  0.0000E+00  0.0000E+00
    -15.710  0.0000E+00  0.0000E+00
    -15.699  0.0000E+00  0.0000E+00
    -15.689  0.0000E+00  0.0000E+00
    -15.678  0.0000E+00  0.0000E+00
    -15.667  0.0000E+00  0.0000E+00
    -15.656  0.0000E+00  0.0000E+00
    -15.645  0.0000E+00  0.0000E+00
    -15.634  0.0000E+00  0.0000E+00
    -15.623  0.0000E+00  0.0000E+00
    -15.612  0.0000E+00  0.0000E+00
    -15.601  0.0000E+00  0.0000E+00
    -15.590  0.0000E+00  0.0000E+00
    -15.580  0.0000E+00  0.0000E+00
    -15.569  0.0000E+00  0.0000E+00
    -15.558  0.0000E+00  0.0000E+00
    -15.547  0.0000E+00  0.0000E+00
    -15.536  0.0000E+00  0.0000E+00
    -15.525  0.0000E+00  0.0000E+00
    -15.514  0.0000E+00  0.0000E+00
    -15.503  0.0000E+00  0.0000E+00
    -15.492  0.0000E+00  0.0000E+00
    -15.481  0.0000E+00  0.0000E+00
    -15.471  0.0000E+00  0.0000E+00
    -15.460  0.0000E+00  0.0000E+00
    -15.449  0.0000E+00  0.0000E+00
    -15.438  0.0000E+00  0.0000E+00
    -15.427  0.0000E+00  0.0000E+00
    -15.416  0.0000E+00  0.0000E+00
    -15.405  0.0000E+00  0.0000E+00
    -15.394  0.0000E+00  0.0000E+00
    -15.383  0.0000E+00  0.0000E+00
    -15.373  0.0000E+00  0.0000E+00
    -15.362  0.0000E+00  0.0000E+00
    -15.351  0.0000E+00  0.0000E+00
    -15.340  0.0000E+00  0.0000E+00
    -15.329  0.0000E+00  0.0000E+00
    -15.318  0.0000E+00  0.0000E+00
    -15.307  0.0000E+00  0.0000E+00
    -15.296  0.0000E+00  0.0000E+00
    -15.285  0.0000E+00  0.0000E+00
    -15.274  0.0000E+00  0.0000E+00
    -15.264  0.0000E+00  0.0000E+00
    -15.253  0.0000E+00  0.0000E+00
    -15.242  0.0000E+00  0.0000E+00
    -15.231  0.0000E+00  0.0000E+00
    -15.220  0.0000E+00  0.0000E+00
    -15.209  0.0000E+00  0.0000E+00
    -15.198  0.0000E+00  0.0000E+00
    -15.187  0.0000E+00  0.0000E+00
    -15.176  0.0000E+00  0.0000E+00
    -15.165  0.0000E+00  0.0000E+00
    -15.155  0.0000E+00  0.0000E+00
    -15.144  0.0000E+00  0.0000E+00
    -15.133  0.0000E+00  0.0000E+00
    -15.122  0.0000E+00  0.0000E+00
    -15.111  0.0000E+00  0.0000E+00
    -15.100  0.0000E+00  0.0000E+00
    -15.089  0.0000E+00  0.0000E+00
    -15.078  0.0000E+00  0.0000E+00
    -15.067  0.0000E+00  0.0000E+00
    -15.057  0.0000E+00  0.0000E+00
    -15.046  0.0000E+00  0.0000E+00
    -15.035  0.0000E+00  0.0000E+00
    -15.024  0.0000E+00  0.0000E+00
    -15.013  0.0000E+00  0.0000E+00
    -15.002  0.1269E-12  0.1383E-14
    -14.991  0.5008E-08  0.5457E-10
    -14.980  0.1950E-04  0.2125E-06
    -14.969  0.7783E-02  0.8502E-04
    -14.958  0.3425E+00  0.3817E-02
    -14.948  0.1880E+01  0.2430E-01
    -14.937  0.1441E+01  0.4000E-01
    -14.926  0.1509E+00  0.4165E-01
    -14.915  0.1899E-02  0.4167E-01
    -14.904  0.2569E-05  0.4167E-01
    -14.893  0.3518E-09  0.4167E-01
    -14.882  0.4670E-14  0.4167E-01
    -14.871  0.0000E+00  0.4167E-01
    -14.860  0.0000E+00  0.4167E-01
    -14.849  0.1274E-14  0.4167E-01
    -14.839  0.1522E-09  0.4167E-01
    -14.828  0.1571E-05  0.4167E-01
    -14.817  0.1631E-02  0.4168E-01
    -14.806  0.1800E+00  0.4365E-01
    -14.795  0.2340E+01  0.6914E-01
    -14.784  0.4185E+01  0.1147E+00
    -14.773  0.3177E+01  0.1494E+00
    -14.762  0.6428E+01  0.2194E+00
    -14.751  0.2661E+01  0.2484E+00
    -14.741  0.1460E+00  0.2500E+00
    -14.730  0.1166E-01  0.2501E+00
    -14.719  0.4092E+00  0.2546E+00
    -14.708  0.1963E+01  0.2760E+00
    -14.697  0.1320E+01  0.2903E+00
    -14.686  0.1204E+00  0.2917E+00
    -14.675  0.1308E-02  0.2917E+00
    -14.664  0.1521E-05  0.2917E+00
    -14.653  0.5404E-07  0.2917E+00
    -14.642  0.1745E-03  0.2917E+00
    -14.632  0.5963E-01  0.2923E+00
    -14.621  0.2317E+01  0.3176E+00
    -14.610  0.1155E+02  0.4434E+00
    -14.599  0.8435E+01  0.5353E+00
    -14.588  0.3411E+01  0.5725E+00
    -14.577  0.3987E+01  0.6160E+00
    -14.566  0.1840E+01  0.6360E+00
    -14.555  0.4109E+01  0.6808E+00
    -14.544  0.2449E+01  0.7075E+00
    -14.533  0.1996E+01  0.7292E+00
    -14.523  0.4260E+01  0.7756E+00
    -14.512  0.1411E+01  0.7910E+00
    -14.501  0.6071E-01  0.7917E+00
    -14.490  0.2975E-03  0.7917E+00
    -14.479  0.1523E-06  0.7917E+00
    -14.468  0.3033E-05  0.7917E+00
    -14.457  0.3180E-02  0.7917E+00
    -14.446  0.3543E+00  0.7956E+00
    -14.435  0.4648E+01  0.8462E+00
    -14.425  0.8193E+01  0.9355E+00
    -14.414  0.2033E+01  0.9576E+00
    -14.403  0.6818E-01  0.9584E+00
    -14.392  0.4055E+00  0.9628E+00
    -14.381  0.4919E+01  0.1016E+01
    -14.370  0.8058E+01  0.1104E+01
    -14.359  0.1863E+01  0.1124E+01
    -14.348  0.5233E+00  0.1130E+01
    -14.337  0.3365E+01  0.1167E+01
    -14.326  0.3339E+01  0.1203E+01
    -14.316  0.4582E+00  0.1208E+01
    -14.305  0.7690E-02  0.1208E+01
    -14.294  0.1404E-04  0.1208E+01
    -14.283  0.2611E-08  0.1208E+01
    -14.272  0.6864E-09  0.1208E+01
    -14.261  0.5041E-05  0.1208E+01
    -14.250  0.3746E-02  0.1208E+01
    -14.239  0.2994E+00  0.1212E+01
    -14.228  0.2873E+01  0.1243E+01
    -14.217  0.3766E+01  0.1284E+01
    -14.207  0.6897E+00  0.1291E+01
    -14.196  0.1612E-01  0.1292E+01
    -14.185  0.7322E-01  0.1292E+01
    -14.174  0.1899E+01  0.1313E+01
    -14.163  0.9118E+01  0.1413E+01
    -14.152  0.9805E+01  0.1519E+01
    -14.141  0.2061E+01  0.1542E+01
    -14.130  0.1578E+01  0.1559E+01
    -14.119  0.4272E+01  0.1606E+01
    -14.109  0.1695E+01  0.1624E+01
    -14.098  0.1005E+00  0.1625E+01
    -14.087  0.7960E+00  0.1634E+01
    -14.076  0.6369E+01  0.1703E+01
    -14.065  0.7054E+01  0.1780E+01
    -14.054  0.2064E+01  0.1803E+01
    -14.043  0.4097E+01  0.1847E+01
    -14.032  0.2366E+01  0.1873E+01
    -14.021  0.1850E+00  0.1875E+01
    -14.010  0.6202E-01  0.1876E+01
    -14.000  0.2359E+01  0.1901E+01
    -13.989  0.1165E+02  0.2028E+01
    -13.978  0.8096E+01  0.2117E+01
    -13.967  0.8163E+00  0.2125E+01
    -13.956  0.1739E+01  0.2144E+01
    -13.945  0.7945E+01  0.2231E+01
    -13.934  0.5121E+01  0.2287E+01
    -13.923  0.4484E+00  0.2292E+01
    -13.912  0.2383E+00  0.2294E+01
    -13.901  0.3863E+01  0.2336E+01
    -13.891  0.8470E+01  0.2429E+01
    -13.880  0.2622E+01  0.2457E+01
    -13.869  0.1081E+00  0.2458E+01
    -13.858  0.3515E+00  0.2462E+01
    -13.847  0.4629E+01  0.2513E+01
    -13.836  0.8202E+01  0.2602E+01
    -13.825  0.2045E+01  0.2624E+01
    -13.814  0.6498E-01  0.2625E+01
    -13.803  0.2314E-03  0.2625E+01
    -13.793  0.8516E-07  0.2625E+01
    -13.782  0.3108E-11  0.2625E+01
    -13.771  0.0000E+00  0.2625E+01
    -13.760  0.0000E+00  0.2625E+01
    -13.749  0.0000E+00  0.2625E+01
    -13.738  0.0000E+00  0.2625E+01
    -13.727  0.0000E+00  0.2625E+01
    -13.716  0.0000E+00  0.2625E+01
    -13.705  0.2602E-12  0.2625E+01
    -13.694  0.1021E-07  0.2625E+01
    -13.684  0.3958E-04  0.2625E+01
    -13.673  0.1573E-01  0.2625E+01
    -13.662  0.6944E+00  0.2633E+01
    -13.651  0.4260E+01  0.2679E+01
    -13.640  0.8210E+01  0.2769E+01
    -13.629  0.8114E+01  0.2857E+01
    -13.618  0.1608E+01  0.2875E+01
    -13.607  0.4140E-01  0.2875E+01
    -13.596  0.1185E-03  0.2875E+01
    -13.585  0.1916E-05  0.2875E+01
    -13.575  0.1856E-02  0.2875E+01
    -13.564  0.1950E+00  0.2877E+01
    -13.553  0.2420E+01  0.2904E+01
    -13.542  0.4050E+01  0.2948E+01
    -13.531  0.9525E+00  0.2958E+01
    -13.520  0.2843E-01  0.2958E+01
    -13.509  0.3561E-03  0.2958E+01
    -13.498  0.7070E-01  0.2959E+01
    -13.487  0.2202E+01  0.2983E+01
    -13.477  0.1035E+02  0.3096E+01
    -13.466  0.1273E+02  0.3235E+01
    -13.455  0.4899E+01  0.3288E+01
    -13.444  0.5773E+00  0.3294E+01
    -13.433  0.4458E+01  0.3343E+01
    -13.422  0.1248E+02  0.3479E+01
    -13.411  0.5433E+01  0.3538E+01
    -13.400  0.3443E+00  0.3542E+01
    -13.389  0.5260E+00  0.3547E+01
    -13.378  0.5456E+01  0.3607E+01
    -13.368  0.7750E+01  0.3691E+01
    -13.357  0.2186E+01  0.3715E+01
    -13.346  0.3746E+01  0.3756E+01
    -13.335  0.2950E+01  0.3788E+01
    -13.324  0.3212E+00  0.3792E+01
    -13.313  0.4213E-02  0.3792E+01
    -13.302  0.5954E-05  0.3792E+01
    -13.291  0.1006E-04  0.3792E+01
    -13.280  0.7481E-02  0.3792E+01
    -13.269  0.5982E+00  0.3798E+01
    -13.259  0.5744E+01  0.3861E+01
    -13.248  0.7534E+01  0.3943E+01
    -13.237  0.1381E+01  0.3958E+01
    -13.226  0.1067E+00  0.3959E+01
    -13.215  0.2208E+01  0.3983E+01
    -13.204  0.8301E+01  0.4074E+01
    -13.193  0.4399E+01  0.4122E+01
    -13.182  0.4683E+00  0.4127E+01
    -13.171  0.2205E+01  0.4151E+01
    -13.161  0.4149E+01  0.4196E+01
    -13.150  0.1101E+01  0.4208E+01
    -13.139  0.3876E-01  0.4208E+01
    -13.128  0.1597E+00  0.4210E+01
    -13.117  0.2221E+01  0.4234E+01
    -13.106  0.4141E+01  0.4279E+01
    -13.095  0.1088E+01  0.4291E+01
    -13.084  0.3655E-01  0.4292E+01
    -13.073  0.1380E-03  0.4292E+01
    -13.062  0.5737E-04  0.4292E+01
    -13.052  0.2520E-01  0.4292E+01
    -13.041  0.1217E+01  0.4305E+01
    -13.030  0.7281E+01  0.4385E+01
    -13.019  0.6069E+01  0.4451E+01
    -13.008  0.6946E+00  0.4458E+01
    -12.997  0.1525E+00  0.4460E+01
    -12.986  0.4299E+01  0.4507E+01
    -12.975  0.1653E+02  0.4687E+01
    -12.964  0.8960E+01  0.4785E+01
    -12.953  0.7087E+00  0.4792E+01
    -12.943  0.1380E+01  0.4807E+01
    -12.932  0.4251E+01  0.4854E+01
    -12.921  0.1856E+01  0.4874E+01
    -12.910  0.1072E+00  0.4875E+01
    -12.899  0.1313E-02  0.4875E+01
    -12.888  0.1216E+00  0.4876E+01
    -12.877  0.2823E+01  0.4907E+01
    -12.866  0.8517E+01  0.5000E+01
    -12.855  0.3628E+01  0.5039E+01
    -12.845  0.2041E+00  0.5042E+01
    -12.834  0.1335E-01  0.5042E+01
    -12.823  0.7936E+00  0.5050E+01
    -12.812  0.6364E+01  0.5120E+01
    -12.801  0.7057E+01  0.5197E+01
    -12.790  0.2377E+01  0.5223E+01
    -12.779  0.7541E+01  0.5305E+01
    -12.768  0.9886E+01  0.5412E+01
    -12.757  0.1527E+02  0.5579E+01
    -12.746  0.1047E+02  0.5693E+01
    -12.736  0.1379E+01  0.5708E+01
    -12.725  0.2639E-01  0.5708E+01
    -12.714  0.5894E-04  0.5708E+01
    -12.703  0.1371E-07  0.5708E+01
    -12.692  0.1792E-10  0.5708E+01
    -12.681  0.3368E-06  0.5708E+01
    -12.670  0.6417E-03  0.5708E+01
    -12.659  0.1276E+00  0.5710E+01
    -12.648  0.2892E+01  0.5741E+01
    -12.637  0.8528E+01  0.5834E+01
    -12.627  0.3711E+01  0.5875E+01
    -12.616  0.4853E+01  0.5927E+01
    -12.605  0.1963E+02  0.6141E+01
    -12.594  0.1721E+02  0.6329E+01
    -12.583  0.4041E+01  0.6373E+01
    -12.572  0.3333E+00  0.6377E+01
    -12.561  0.2142E+01  0.6400E+01
    -12.550  0.4172E+01  0.6445E+01
    -12.539  0.1146E+01  0.6458E+01
    -12.529  0.4039E-01  0.6458E+01
    -12.518  0.1603E-03  0.6458E+01
    -12.507  0.2961E-04  0.6458E+01
    -12.496  0.1033E-01  0.6458E+01
    -12.485  0.4006E+00  0.6463E+01
    -12.474  0.1953E+01  0.6484E+01
    -12.463  0.1335E+01  0.6499E+01
    -12.452  0.1238E+00  0.6500E+01
    -12.441  0.1370E-02  0.6500E+01
    -12.430  0.1622E-05  0.6500E+01
    -12.420  0.9343E-09  0.6500E+01
    -12.409  0.6261E-05  0.6500E+01
    -12.398  0.5342E-02  0.6500E+01
    -12.387  0.4878E+00  0.6505E+01
    -12.376  0.5305E+01  0.6563E+01
    -12.365  0.7833E+01  0.6649E+01
    -12.354  0.1621E+01  0.6666E+01
    -12.343  0.4221E-01  0.6667E+01
    -12.332  0.1929E-03  0.6667E+01
    -12.321  0.2339E-01  0.6667E+01
    -12.311  0.8617E+00  0.6676E+01
    -12.300  0.4302E+01  0.6723E+01
    -12.289  0.5581E+01  0.6784E+01
    -12.278  0.4373E+01  0.6832E+01
    -12.267  0.5895E+01  0.6896E+01
    -12.256  0.7881E+01  0.6982E+01
    -12.245  0.2419E+01  0.7008E+01
    -12.234  0.6360E+01  0.7077E+01
    -12.223  0.7132E+01  0.7155E+01
    -12.213  0.2528E+01  0.7183E+01
    -12.202  0.4282E+01  0.7229E+01
    -12.191  0.1843E+01  0.7249E+01
    -12.180  0.1425E+01  0.7265E+01
    -12.169  0.5347E+01  0.7323E+01
    -12.158  0.4077E+01  0.7368E+01
    -12.147  0.6573E+00  0.7375E+01
    -12.136  0.2664E+00  0.7378E+01
    -12.125  0.6632E+01  0.7450E+01
    -12.114  0.2820E+02  0.7757E+01
    -12.104  0.2257E+02  0.8003E+01
    -12.093  0.3604E+01  0.8042E+01
    -12.082  0.3284E+01  0.8078E+01
    -12.071  0.8550E+01  0.8171E+01
    -12.060  0.3229E+01  0.8207E+01
    -12.049  0.1704E+00  0.8208E+01
    -12.038  0.7416E+00  0.8217E+01
    -12.027  0.6600E+01  0.8288E+01
    -12.016  0.1242E+02  0.8424E+01
    -12.005  0.1194E+02  0.8554E+01
    -11.995  0.7134E+01  0.8632E+01
    -11.984  0.4235E+01  0.8678E+01
    -11.973  0.4499E+01  0.8727E+01
    -11.962  0.2056E+01  0.8749E+01
    -11.951  0.1404E+01  0.8764E+01
    -11.940  0.4226E+01  0.8811E+01
    -11.929  0.1973E+01  0.8832E+01
    -11.918  0.2581E+00  0.8835E+01
    -11.907  0.2983E+01  0.8867E+01
    -11.897  0.8539E+01  0.8960E+01
    -11.886  0.3453E+01  0.8998E+01
    -11.875  0.1958E+00  0.9000E+01
    -11.864  0.1018E+01  0.9011E+01
    -11.853  0.1069E+02  0.9128E+01
    -11.842  0.1756E+02  0.9319E+01
    -11.831  0.1176E+02  0.9447E+01
    -11.820  0.7673E+01  0.9531E+01
    -11.809  0.4124E+01  0.9576E+01
    -11.798  0.6884E+00  0.9583E+01
    -11.788  0.1557E-01  0.9583E+01
    -11.777  0.3900E-04  0.9583E+01
    -11.766  0.4490E-07  0.9583E+01
    -11.755  0.9968E-04  0.9583E+01
    -11.744  0.2942E-01  0.9584E+01
    -11.733  0.9801E+00  0.9594E+01
    -11.722  0.4608E+01  0.9645E+01
    -11.711  0.5920E+01  0.9709E+01
    -11.700  0.3397E+01  0.9746E+01
    -11.689  0.1959E+01  0.9767E+01
    -11.679  0.7777E+01  0.9852E+01
    -11.668  0.5403E+01  0.9911E+01
    -11.657  0.5453E+00  0.9917E+01
    -11.646  0.1462E+01  0.9933E+01
    -11.635  0.7874E+01  0.1002E+02
    -11.624  0.9516E+01  0.1012E+02
    -11.613  0.9026E+01  0.1022E+02
    -11.602  0.3140E+01  0.1025E+02
    -11.591  0.5673E+01  0.1032E+02
    -11.581  0.7658E+01  0.1040E+02
    -11.570  0.1477E+01  0.1042E+02
    -11.559  0.3821E+00  0.1042E+02
    -11.548  0.3034E+01  0.1045E+02
    -11.537  0.3642E+01  0.1049E+02
    -11.526  0.7393E+00  0.1050E+02
    -11.515  0.3567E+01  0.1054E+02
    -11.504  0.1254E+02  0.1068E+02
    -11.493  0.6358E+01  0.1075E+02
    -11.482  0.3361E+01  0.1078E+02
    -11.472  0.1529E+02  0.1095E+02
    -11.461  0.1116E+02  0.1107E+02
    -11.450  0.1114E+01  0.1108E+02
    -11.439  0.1486E-01  0.1108E+02
    -11.428  0.1708E+00  0.1109E+02
    -11.417  0.2287E+01  0.1111E+02
    -11.406  0.4113E+01  0.1115E+02
    -11.395  0.1041E+01  0.1117E+02
    -11.384  0.3362E-01  0.1117E+02
    -11.373  0.1218E-03  0.1117E+02
    -11.363  0.4561E-07  0.1117E+02
    -11.352  0.1694E-11  0.1117E+02
    -11.341  0.0000E+00  0.1117E+02
    -11.330  0.0000E+00  0.1117E+02
    -11.319  0.0000E+00  0.1117E+02
    -11.308  0.1927E-12  0.1117E+02
    -11.297  0.8025E-08  0.1117E+02
    -11.286  0.3298E-04  0.1117E+02
    -11.275  0.1388E-01  0.1117E+02
    -11.265  0.6424E+00  0.1117E+02
    -11.254  0.3696E+01  0.1121E+02
    -11.243  0.2965E+01  0.1125E+02
    -11.232  0.3259E+00  0.1125E+02
    -11.221  0.4315E-02  0.1125E+02
    -11.210  0.6158E-05  0.1125E+02
    -11.199  0.8902E-09  0.1125E+02
    -11.188  0.4272E-11  0.1125E+02
    -11.177  0.1094E-06  0.1125E+02
    -11.166  0.2790E-03  0.1125E+02
    -11.156  0.7362E-01  0.1125E+02
    -11.145  0.2184E+01  0.1127E+02
    -11.134  0.8288E+01  0.1136E+02
    -11.123  0.4430E+01  0.1141E+02
    -11.112  0.3172E+00  0.1142E+02
    -11.101  0.2663E-02  0.1142E+02
    -11.090  0.2370E-05  0.1142E+02
    -11.079  0.2118E-09  0.1142E+02
    -11.068  0.1698E-14  0.1142E+02
    -11.057  0.9340E-14  0.1142E+02
    -11.047  0.8084E-09  0.1142E+02
    -11.036  0.6701E-05  0.1142E+02
    -11.025  0.5607E-02  0.1142E+02
    -11.014  0.5024E+00  0.1142E+02
    -11.003  0.5377E+01  0.1148E+02
    -10.992  0.8467E+01  0.1157E+02
    -10.981  0.7588E+01  0.1166E+02
    -10.970  0.7375E+01  0.1174E+02
    -10.959  0.1249E+01  0.1175E+02
    -10.949  0.2641E-01  0.1175E+02
    -10.938  0.6136E-04  0.1175E+02
    -10.927  0.1459E-07  0.1175E+02
    -10.916  0.3430E-12  0.1175E+02
    -10.905  0.0000E+00  0.1175E+02
    -10.894  0.0000E+00  0.1175E+02
    -10.883  0.0000E+00  0.1175E+02
    -10.872  0.6835E-13  0.1175E+02
    -10.861  0.3496E-08  0.1175E+02
    -10.850  0.1755E-04  0.1175E+02
    -10.840  0.8978E-02  0.1175E+02
    -10.829  0.5013E+00  0.1176E+02
    -10.818  0.3461E+01  0.1179E+02
    -10.807  0.4143E+01  0.1184E+02
    -10.796  0.4412E+01  0.1189E+02
    -10.785  0.2548E+01  0.1191E+02
    -10.774  0.2192E+00  0.1192E+02
    -10.763  0.2244E-02  0.1192E+02
    -10.752  0.2453E-05  0.1192E+02
    -10.742  0.2701E-09  0.1192E+02
    -10.731  0.3396E-14  0.1192E+02
    -10.720  0.0000E+00  0.1192E+02
    -10.709  0.0000E+00  0.1192E+02
    -10.698  0.2883E-12  0.1192E+02
    -10.687  0.1109E-07  0.1192E+02
    -10.676  0.4212E-04  0.1192E+02
    -10.665  0.1641E-01  0.1192E+02
    -10.654  0.7055E+00  0.1192E+02
    -10.643  0.3788E+01  0.1197E+02
    -10.633  0.2843E+01  0.1200E+02
    -10.622  0.2927E+00  0.1200E+02
    -10.611  0.1775E+00  0.1200E+02
    -10.600  0.2306E+01  0.1203E+02
    -10.589  0.4105E+01  0.1207E+02
    -10.578  0.1029E+01  0.1208E+02
    -10.567  0.3286E-01  0.1208E+02
    -10.556  0.1177E-03  0.1208E+02
    -10.545  0.4355E-07  0.1208E+02
    -10.534  0.1688E-10  0.1208E+02
    -10.524  0.2601E-06  0.1208E+02
    -10.513  0.4417E-03  0.1208E+02
    -10.502  0.7853E-01  0.1208E+02
    -10.491  0.1601E+01  0.1210E+02
    -10.480  0.4275E+01  0.1215E+02
    -10.469  0.1613E+01  0.1217E+02
    -10.458  0.7970E-01  0.1217E+02
    -10.447  0.4520E-03  0.1217E+02
    -10.436  0.2684E-06  0.1217E+02
    -10.426  0.1590E-10  0.1217E+02
    -10.415  0.0000E+00  0.1217E+02
    -10.404  0.0000E+00  0.1217E+02
    -10.393  0.0000E+00  0.1217E+02
    -10.382  0.1698E-14  0.1217E+02
    -10.371  0.1727E-09  0.1217E+02
    -10.360  0.1733E-05  0.1217E+02
    -10.349  0.1750E-02  0.1217E+02
    -10.338  0.1880E+00  0.1217E+02
    -10.327  0.2383E+01  0.1219E+02
    -10.317  0.4068E+01  0.1224E+02
    -10.306  0.1044E+01  0.1225E+02
    -10.295  0.2113E+01  0.1227E+02
    -10.284  0.8227E+01  0.1236E+02
    -10.273  0.4573E+01  0.1241E+02
    -10.262  0.3413E+00  0.1242E+02
    -10.251  0.2995E-02  0.1242E+02
    -10.240  0.2790E-05  0.1242E+02
    -10.229  0.2612E-09  0.1242E+02
    -10.218  0.3396E-14  0.1242E+02
    -10.208  0.0000E+00  0.1242E+02
    -10.197  0.0000E+00  0.1242E+02
    -10.186  0.0000E+00  0.1242E+02
    -10.175  0.0000E+00  0.1242E+02
    -10.164  0.3626E-12  0.1242E+02
    -10.153  0.1529E-07  0.1242E+02
    -10.142  0.6359E-04  0.1242E+02
    -10.131  0.2706E-01  0.1242E+02
    -10.120  0.1267E+01  0.1243E+02
    -10.110  0.7363E+01  0.1251E+02
    -10.099  0.5967E+01  0.1258E+02
    -10.088  0.6626E+00  0.1258E+02
    -10.077  0.8871E-02  0.1258E+02
    -10.066  0.2145E-03  0.1258E+02
    -10.055  0.5926E-01  0.1258E+02
    -10.044  0.1948E+01  0.1261E+02
    -10.033  0.8132E+01  0.1269E+02
    -10.022  0.4775E+01  0.1275E+02
    -10.011  0.3776E+00  0.1275E+02
    -10.001  0.3524E-02  0.1275E+02
     -9.990  0.3499E-05  0.1275E+02
     -9.979  0.3495E-09  0.1275E+02
     -9.968  0.3396E-14  0.1275E+02
     -9.957  0.0000E+00  0.1275E+02
     -9.946  0.0000E+00  0.1275E+02
     -9.935  0.0000E+00  0.1275E+02
     -9.924  0.0000E+00  0.1275E+02
     -9.913  0.0000E+00  0.1275E+02
     -9.902  0.0000E+00  0.1275E+02
     -9.892  0.0000E+00  0.1275E+02
     -9.881  0.0000E+00  0.1275E+02
     -9.870  0.0000E+00  0.1275E+02
     -9.859  0.0000E+00  0.1275E+02
     -9.848  0.0000E+00  0.1275E+02
     -9.837  0.0000E+00  0.1275E+02
     -9.826  0.0000E+00  0.1275E+02
     -9.815  0.0000E+00  0.1275E+02
     -9.804  0.0000E+00  0.1275E+02
     -9.794  0.0000E+00  0.1275E+02
     -9.783  0.1185E-11  0.1275E+02
     -9.772  0.3950E-07  0.1275E+02
     -9.761  0.1301E-03  0.1275E+02
     -9.750  0.4410E-01  0.1275E+02
     -9.739  0.1661E+01  0.1277E+02
     -9.728  0.7875E+01  0.1285E+02
     -9.717  0.5238E+01  0.1291E+02
     -9.706  0.5017E+00  0.1292E+02
     -9.695  0.9732E+00  0.1293E+02
     -9.685  0.4062E+01  0.1297E+02
     -9.674  0.2396E+01  0.1300E+02
     -9.663  0.1904E+00  0.1300E+02
     -9.652  0.1787E-02  0.1300E+02
     -9.641  0.1037E-02  0.1300E+02
     -9.630  0.1739E+00  0.1300E+02
     -9.619  0.3363E+01  0.1304E+02
     -9.608  0.8546E+01  0.1313E+02
     -9.597  0.3069E+01  0.1317E+02
     -9.586  0.3664E+00  0.1317E+02
     -9.576  0.2558E+01  0.1320E+02
     -9.565  0.3986E+01  0.1324E+02
     -9.554  0.1876E+01  0.1326E+02
     -9.543  0.1089E+02  0.1338E+02
     -9.532  0.1824E+02  0.1358E+02
     -9.521  0.7199E+01  0.1366E+02
     -9.510  0.1383E+01  0.1367E+02
     -9.499  0.4669E+01  0.1372E+02
     -9.488  0.1082E+02  0.1384E+02
     -9.478  0.7302E+01  0.1392E+02
     -9.467  0.4693E+01  0.1397E+02
     -9.456  0.2437E+01  0.1400E+02
     -9.445  0.5467E+00  0.1400E+02
     -9.434  0.4629E+01  0.1405E+02
     -9.423  0.8239E+01  0.1414E+02
     -9.412  0.3155E+01  0.1418E+02
     -9.401  0.5300E+01  0.1424E+02
     -9.390  0.9281E+01  0.1434E+02
     -9.379  0.6514E+01  0.1441E+02
     -9.369  0.1687E+01  0.1443E+02
     -9.358  0.4021E+01  0.1447E+02
     -9.347  0.2544E+01  0.1450E+02
     -9.336  0.1951E+01  0.1452E+02
     -9.325  0.7975E+01  0.1461E+02
     -9.314  0.6092E+01  0.1467E+02
     -9.303  0.7690E+01  0.1476E+02
     -9.292  0.1154E+02  0.1488E+02
     -9.281  0.8909E+01  0.1498E+02
     -9.270  0.1923E+01  0.1500E+02
     -9.260  0.2351E+01  0.1503E+02
     -9.249  0.8348E+01  0.1512E+02
     -9.238  0.4274E+01  0.1516E+02
     -9.227  0.4273E+00  0.1517E+02
     -9.216  0.2066E+01  0.1519E+02
     -9.205  0.4199E+01  0.1524E+02
     -9.194  0.1205E+01  0.1525E+02
     -9.183  0.4450E-01  0.1525E+02
     -9.172  0.2952E-02  0.1525E+02
     -9.162  0.3249E+00  0.1525E+02
     -9.151  0.4504E+01  0.1530E+02
     -9.140  0.9231E+01  0.1540E+02
     -9.129  0.7409E+01  0.1548E+02
     -9.118  0.9805E+01  0.1559E+02
     -9.107  0.6269E+01  0.1566E+02
     -9.096  0.1368E+01  0.1567E+02
     -9.085  0.6026E+01  0.1574E+02
     -9.074  0.7929E+01  0.1583E+02
     -9.063  0.7044E+01  0.1590E+02
     -9.053  0.8822E+01  0.1600E+02
     -9.042  0.5599E+01  0.1606E+02
     -9.031  0.2017E+01  0.1608E+02
     -9.020  0.1243E+00  0.1608E+02
     -9.009  0.2087E-01  0.1608E+02
     -8.998  0.1066E+01  0.1610E+02
     -8.987  0.7004E+01  0.1617E+02
     -8.976  0.6391E+01  0.1624E+02
     -8.965  0.8034E+00  0.1625E+02
     -8.954  0.1233E-01  0.1625E+02
     -8.944  0.1975E-01  0.1625E+02
     -8.933  0.8982E+00  0.1626E+02
     -8.922  0.6803E+01  0.1633E+02
     -8.911  0.1126E+02  0.1646E+02
     -8.900  0.3793E+01  0.1650E+02
     -8.889  0.1162E+01  0.1651E+02
     -8.878  0.4841E+01  0.1656E+02
     -8.867  0.9285E+01  0.1666E+02
     -8.856  0.1339E+02  0.1681E+02
     -8.846  0.1283E+02  0.1695E+02
     -8.835  0.9271E+01  0.1705E+02
     -8.824  0.9150E+01  0.1715E+02
     -8.813  0.1059E+02  0.1727E+02
     -8.802  0.1687E+02  0.1745E+02
     -8.791  0.9635E+01  0.1756E+02
     -8.780  0.1292E+02  0.1770E+02
     -8.769  0.5118E+01  0.1775E+02
     -8.758  0.3469E+01  0.1779E+02
     -8.747  0.3465E+01  0.1783E+02
     -8.737  0.5492E+00  0.1783E+02
     -8.726  0.1157E+01  0.1785E+02
     -8.715  0.5534E+01  0.1791E+02
     -8.704  0.4407E+01  0.1795E+02
     -8.693  0.2695E+01  0.1798E+02
     -8.682  0.4785E+01  0.1804E+02
     -8.671  0.5806E+01  0.1810E+02
     -8.660  0.7286E+01  0.1818E+02
     -8.649  0.3678E+01  0.1822E+02
     -8.638  0.7239E+01  0.1830E+02
     -8.628  0.6314E+01  0.1837E+02
     -8.617  0.1099E+01  0.1838E+02
     -8.606  0.4488E+01  0.1843E+02
     -8.595  0.8269E+01  0.1852E+02
     -8.584  0.2151E+01  0.1854E+02
     -8.573  0.7979E-01  0.1854E+02
     -8.562  0.3549E+00  0.1855E+02
     -8.551  0.1897E+01  0.1857E+02
     -8.540  0.1474E+01  0.1858E+02
     -8.530  0.2047E+01  0.1860E+02
     -8.519  0.8480E+01  0.1870E+02
     -8.508  0.6800E+01  0.1877E+02
     -8.497  0.1748E+01  0.1879E+02
     -8.486  0.1324E+00  0.1879E+02
     -8.475  0.1461E-02  0.1879E+02
     -8.464  0.4694E-03  0.1879E+02
     -8.453  0.1037E+00  0.1879E+02
     -8.442  0.2606E+01  0.1882E+02
     -8.431  0.8466E+01  0.1891E+02
     -8.421  0.3882E+01  0.1896E+02
     -8.410  0.2362E+00  0.1896E+02
     -8.399  0.1669E-02  0.1896E+02
     -8.388  0.1243E-05  0.1896E+02
     -8.377  0.9271E-10  0.1896E+02
     -8.366  0.0000E+00  0.1896E+02
     -8.355  0.1274E-14  0.1896E+02
     -8.344  0.1487E-09  0.1896E+02
     -8.333  0.1543E-05  0.1896E+02
     -8.322  0.1610E-02  0.1896E+02
     -8.312  0.1786E+00  0.1896E+02
     -8.301  0.2332E+01  0.1899E+02
     -8.290  0.4093E+01  0.1903E+02
     -8.279  0.1011E+01  0.1904E+02
     -8.268  0.3180E-01  0.1904E+02
     -8.257  0.1131E-03  0.1904E+02
     -8.246  0.1501E-02  0.1904E+02
     -8.235  0.2208E+00  0.1904E+02
     -8.224  0.3765E+01  0.1909E+02
     -8.214  0.8706E+01  0.1918E+02
     -8.203  0.7125E+01  0.1926E+02
     -8.192  0.1507E+02  0.1942E+02
     -8.181  0.9814E+01  0.1953E+02
     -8.170  0.1170E+01  0.1954E+02
     -8.159  0.1996E-01  0.1954E+02
     -8.148  0.3949E-04  0.1954E+02
     -8.137  0.2153E-03  0.1954E+02
     -8.126  0.6191E-01  0.1954E+02
     -8.115  0.1993E+01  0.1956E+02
     -8.105  0.8166E+01  0.1965E+02
     -8.094  0.4712E+01  0.1970E+02
     -8.083  0.8808E+00  0.1971E+02
     -8.072  0.5428E+01  0.1977E+02
     -8.061  0.7756E+01  0.1986E+02
     -8.050  0.1553E+01  0.1987E+02
     -8.039  0.8013E-01  0.1988E+02
     -8.028  0.1292E+01  0.1989E+02
     -8.017  0.7271E+01  0.1997E+02
     -8.006  0.1069E+02  0.2009E+02
     -7.996  0.3480E+01  0.2012E+02
     -7.985  0.4260E+00  0.2013E+02
     -7.974  0.2805E+01  0.2016E+02
     -7.963  0.6551E+01  0.2023E+02
     -7.952  0.9267E+01  0.2033E+02
     -7.941  0.3835E+01  0.2037E+02
     -7.930  0.2274E+00  0.2037E+02
     -7.919  0.1572E-02  0.2037E+02
     -7.908  0.1145E-05  0.2037E+02
     -7.898  0.8347E-10  0.2037E+02
     -7.887  0.0000E+00  0.2037E+02
     -7.876  0.0000E+00  0.2037E+02
     -7.865  0.0000E+00  0.2037E+02
     -7.854  0.0000E+00  0.2037E+02
     -7.843  0.0000E+00  0.2037E+02
     -7.832  0.0000E+00  0.2037E+02
     -7.821  0.1333E-12  0.2037E+02
     -7.810  0.6824E-08  0.2038E+02
     -7.799  0.3445E-04  0.2038E+02
     -7.789  0.1773E-01  0.2038E+02
     -7.778  0.9950E+00  0.2039E+02
     -7.767  0.6857E+01  0.2046E+02
     -7.756  0.6548E+01  0.2053E+02
     -7.745  0.8633E+00  0.2054E+02
     -7.734  0.1388E-01  0.2054E+02
     -7.723  0.2658E-04  0.2054E+02
     -7.712  0.2162E-02  0.2054E+02
     -7.701  0.2143E+00  0.2054E+02
     -7.690  0.2517E+01  0.2057E+02
     -7.680  0.3998E+01  0.2062E+02
     -7.669  0.8918E+00  0.2062E+02
     -7.658  0.8015E-01  0.2063E+02
     -7.647  0.1344E+01  0.2064E+02
     -7.636  0.4429E+01  0.2069E+02
     -7.625  0.5547E+01  0.2075E+02
     -7.614  0.1345E+02  0.2090E+02
     -7.603  0.1943E+02  0.2111E+02
     -7.592  0.8644E+01  0.2120E+02
     -7.582  0.6311E+00  0.2121E+02
     -7.571  0.5862E-02  0.2121E+02
     -7.560  0.6105E-05  0.2121E+02
     -7.549  0.6628E-09  0.2121E+02
     -7.538  0.6793E-14  0.2121E+02
     -7.527  0.0000E+00  0.2121E+02
     -7.516  0.5943E-14  0.2121E+02
     -7.505  0.4923E-09  0.2121E+02
     -7.494  0.3902E-05  0.2121E+02
     -7.483  0.3124E-02  0.2121E+02
     -7.473  0.2683E+00  0.2121E+02
     -7.462  0.2754E+01  0.2124E+02
     -7.451  0.3850E+01  0.2128E+02
     -7.440  0.7533E+00  0.2129E+02
     -7.429  0.1847E-01  0.2129E+02
     -7.418  0.5010E-04  0.2129E+02
     -7.407  0.1396E-07  0.2129E+02
     -7.396  0.3838E-12  0.2129E+02
     -7.385  0.0000E+00  0.2129E+02
     -7.374  0.0000E+00  0.2129E+02
     -7.364  0.0000E+00  0.2129E+02
     -7.353  0.0000E+00  0.2129E+02
     -7.342  0.4245E-15  0.2129E+02
     -7.331  0.4882E-10  0.2129E+02
     -7.320  0.6473E-06  0.2129E+02
     -7.309  0.8594E-03  0.2129E+02
     -7.298  0.1203E+00  0.2129E+02
     -7.287  0.1958E+01  0.2131E+02
     -7.276  0.4277E+01  0.2136E+02
     -7.266  0.3034E+01  0.2139E+02
     -7.255  0.8010E+01  0.2148E+02
     -7.244  0.5096E+01  0.2154E+02
     -7.233  0.4505E+00  0.2154E+02
     -7.222  0.6693E+00  0.2155E+02
     -7.211  0.5974E+01  0.2161E+02
     -7.200  0.7357E+01  0.2169E+02
     -7.189  0.1263E+01  0.2171E+02
     -7.178  0.2693E-01  0.2171E+02
     -7.167  0.6313E-04  0.2171E+02
     -7.157  0.1515E-07  0.2171E+02
     -7.146  0.3583E-12  0.2171E+02
     -7.135  0.0000E+00  0.2171E+02
     -7.124  0.0000E+00  0.2171E+02
     -7.113  0.1121E-11  0.2171E+02
     -7.102  0.3775E-07  0.2171E+02
     -7.091  0.1258E-03  0.2171E+02
     -7.080  0.4310E-01  0.2171E+02
     -7.069  0.1640E+01  0.2173E+02
     -7.058  0.7854E+01  0.2181E+02
     -7.048  0.5274E+01  0.2187E+02
     -7.037  0.5819E+00  0.2188E+02
     -7.026  0.1814E+01  0.2190E+02
     -7.015  0.4259E+01  0.2194E+02
     -7.004  0.1416E+01  0.2196E+02
     -6.993  0.6117E-01  0.2196E+02
     -6.982  0.7287E-03  0.2196E+02
     -6.971  0.9775E-01  0.2196E+02
     -6.960  0.2529E+01  0.2199E+02
     -6.950  0.8442E+01  0.2208E+02