       N       E                     dE             d eps       ncg     rms          rms(c)
DAV:   1     0.339826060559E+03    0.33983E+03   -0.19364E+04  1600   0.955E+02
DAV:   2    -0.265646576131E+02   -0.36639E+03   -0.35461E+03  2224   0.202E+02
DAV:   3    -0.631670275283E+02   -0.36602E+02   -0.36055E+02  1888   0.679E+01
DAV:   4    -0.645389024900E+02   -0.13719E+01   -0.13633E+01  2368   0.145E+01
DAV:   5    -0.645735442783E+02   -0.34642E-01   -0.34607E-01  2400   0.221E+00    0.177E+01
DAV:   6    -0.642396942379E+02    0.33385E+00   -0.20955E-01  2080   0.178E+00    0.105E+01
DAV:   7    -0.640931386546E+02    0.14656E+00   -0.40125E-01  2032   0.236E+00    0.525E-01
DAV:   8    -0.640940818452E+02   -0.94319E-03   -0.28587E-02  2120   0.695E-01    0.326E-01
DAV:   9    -0.640937947692E+02    0.28708E-03   -0.21382E-03  2288   0.192E-01    0.221E-01
DAV:  10    -0.640935498092E+02    0.24496E-03   -0.11391E-03  2016   0.129E-01    0.832E-02
DAV:  11    -0.640934672467E+02    0.82562E-04   -0.23192E-04  2104   0.657E-02    0.522E-02
DAV:  12    -0.640935271170E+02   -0.59870E-04   -0.60658E-05  1952   0.299E-02    0.155E-02
DAV:  13    -0.640936744128E+02   -0.14730E-03   -0.10038E-04  1904   0.317E-02    0.223E-02
DAV:  14    -0.640938310709E+02   -0.15666E-03   -0.13995E-05  1464   0.144E-02    0.137E-02
DAV:  15    -0.640940744998E+02   -0.24343E-03   -0.29155E-05  1648   0.153E-02    0.122E-02
DAV:  16    -0.640941117328E+02   -0.37233E-04   -0.21352E-06  1368   0.569E-03    0.356E-03
DAV:  17    -0.640941800562E+02   -0.68323E-04   -0.20961E-06  1384   0.494E-03    0.189E-03
DAV:  18    -0.640941931514E+02   -0.13095E-04   -0.30808E-07  1248   0.235E-03    0.101E-03
DAV:  19    -0.640942121189E+02   -0.18968E-04   -0.36445E-07  1320   0.200E-03    0.561E-04
DAV:  20    -0.640942202310E+02   -0.81121E-05   -0.28657E-07  1288   0.153E-03
   1 F= -.66184709E+02 E0= -.66184587E+02  d E =-.244114E-03
