<?xml version="1.0" encoding="ISO-8859-1"?>
<modeling>
 <generator>
  <i name="program" type="string">vasp </i>
  <i name="version" type="string">5.4.4.18Apr17-6-g9f103f2a35  </i>
  <i name="subversion" type="string">(build Jun 20 2017 18:00:50) complex            parallel </i>
  <i name="platform" type="string">LinuxIFC </i>
  <i name="date" type="string">2018 03 22 </i>
  <i name="time" type="string">15:18:11 </i>
 </generator>
 <incar>
  <i type="string" name="SYSTEM"> Generic Input</i>
  <i type="int" name="ISTART">     1</i>
  <i type="string" name="PREC">normal    ! precision level</i>
  <i type="int" name="IALGO">    53</i>
  <i type="string" name="ALGO"> Normal    ! SCF minimisation algorithm</i>
  <i type="int" name="INIWAV">     1</i>
  <i type="int" name="NELM">   200</i>
  <i type="int" name="NELMIN">     2</i>
  <i type="int" name="IBRION">     2</i>
  <i name="EDIFF">      0.00001000</i>
  <i name="EDIFFG">     -0.02000000</i>
  <i type="int" name="NSW">     0</i>
  <i type="int" name="ISIF">     3</i>
  <i type="int" name="IWAVPR">    11</i>
  <i type="int" name="NBLOCK">     1</i>
  <i type="int" name="KBLOCK">    40</i>
  <i name="ENCUT">    400.00000000</i>
  <i type="int" name="NEDOS">  2000</i>
  <i type="int" name="ISMEAR">     0</i>
  <i name="SIGMA">      0.01000000</i>
  <i type="int" name="NWRITE">     2</i>
  <i type="logical" name="LVHAR"> T  </i>
  <i type="int" name="LORBIT">    11</i>
  <i type="logical" name="LASPH"> T  </i>
  <i type="int" name="ICORELEVEL">     1</i>
  <v type="int" name="KPOINT_BSE">    -1     0     0     0</v>
  <i type="int" name="NELM">   200</i>
  <i type="string" name="GGA"> PE        ! PBEsol exchange-correlation</i>
  <i type="logical" name="LASPH"> T  </i>
 </incar>
 <structure name="primitive_cell" >
  <crystal>
   <varray name="basis" >
    <v>       3.34288600       0.00000000       0.00000000 </v>
    <v>       0.00000000      32.60240900       0.00000000 </v>
    <v>       0.00000000       0.00000000       4.37483100 </v>
   </varray>
   <i name="volume">    476.79592902 </i>
   <varray name="rec_basis" >
    <v>       0.29914272       0.00000000       0.00000000 </v>
    <v>       0.00000000       0.03067258       0.00000000 </v>
    <v>       0.00000000       0.00000000       0.22858026 </v>
   </varray>
  </crystal>
  <varray name="positions" >
   <v>       0.00000000       0.30672600      -0.08107600 </v>
   <v>      -0.50000000       0.30672600      -0.41892400 </v>
   <v>       0.00000000       0.37246700       0.08107600 </v>
   <v>      -0.50000000       0.37246700       0.41892400 </v>
   <v>       0.00000000       0.46712900      -0.08107600 </v>
   <v>      -0.50000000       0.46712900      -0.41892400 </v>
   <v>       0.00000000      -0.46712900       0.08107600 </v>
   <v>      -0.50000000      -0.46712900       0.41892400 </v>
   <v>       0.00000000      -0.37246700      -0.08107600 </v>
   <v>      -0.50000000      -0.37246700      -0.41892400 </v>
   <v>       0.00000000      -0.30672600       0.08107600 </v>
   <v>      -0.50000000      -0.30672600       0.41892400 </v>
  </varray>
 </structure>
 <varray name="primitive_index" >
  <v type="int" >        1 </v>
  <v type="int" >        2 </v>
  <v type="int" >        3 </v>
  <v type="int" >        4 </v>
  <v type="int" >        5 </v>
  <v type="int" >        6 </v>
  <v type="int" >        7 </v>
  <v type="int" >        8 </v>
  <v type="int" >        9 </v>
  <v type="int" >       10 </v>
  <v type="int" >       11 </v>
  <v type="int" >       12 </v>
 </varray>
 <kpoints>
  <generation param="Gamma">
   <v type="int" name="divisions">       8        1        6 </v>
   <v name="usershift">      0.00000000       0.00000000       0.00000000 </v>
   <v name="genvec1">      0.12500000       0.00000000       0.00000000 </v>
   <v name="genvec2">      0.00000000       1.00000000       0.00000000 </v>
   <v name="genvec3">      0.00000000       0.00000000       0.16666667 </v>
   <v name="shift">      0.00000000       0.00000000       0.00000000 </v>
  </generation>
  <varray name="kpointlist" >
   <v>       0.00000000       0.00000000       0.00000000 </v>
   <v>       0.12500000       0.00000000       0.00000000 </v>
   <v>       0.25000000       0.00000000       0.00000000 </v>
   <v>       0.37500000       0.00000000       0.00000000 </v>
   <v>       0.50000000       0.00000000       0.00000000 </v>
   <v>       0.00000000       0.00000000       0.16666667 </v>
   <v>       0.12500000       0.00000000       0.16666667 </v>
   <v>       0.25000000       0.00000000       0.16666667 </v>
   <v>       0.37500000       0.00000000       0.16666667 </v>
   <v>       0.50000000       0.00000000       0.16666667 </v>
   <v>       0.00000000       0.00000000       0.33333333 </v>
   <v>       0.12500000       0.00000000       0.33333333 </v>
   <v>       0.25000000       0.00000000       0.33333333 </v>
   <v>       0.37500000       0.00000000       0.33333333 </v>
   <v>       0.50000000       0.00000000       0.33333333 </v>
   <v>       0.00000000       0.00000000       0.50000000 </v>
   <v>       0.12500000       0.00000000       0.50000000 </v>
   <v>       0.25000000       0.00000000       0.50000000 </v>
   <v>       0.37500000       0.00000000       0.50000000 </v>
   <v>       0.50000000       0.00000000       0.50000000 </v>
  </varray>
  <varray name="weights" >
   <v>       0.02083333 </v>
   <v>       0.04166667 </v>
   <v>       0.04166667 </v>
   <v>       0.04166667 </v>
   <v>       0.02083333 </v>
   <v>       0.04166667 </v>
   <v>       0.08333333 </v>
   <v>       0.08333333 </v>
   <v>       0.08333333 </v>
   <v>       0.04166667 </v>
   <v>       0.04166667 </v>
   <v>       0.08333333 </v>
   <v>       0.08333333 </v>
   <v>       0.08333333 </v>
   <v>       0.04166667 </v>
   <v>       0.02083333 </v>
   <v>       0.04166667 </v>
   <v>       0.04166667 </v>
   <v>       0.04166667 </v>
   <v>       0.02083333 </v>
  </varray>
 </kpoints>
 <parameters>
  <separator name="general" >
   <i type="string" name="SYSTEM">Generic Input</i>
   <i type="logical" name="LCOMPAT"> F  </i>
  </separator>
  <separator name="electronic" >
   <i type="string" name="PREC">normal</i>
   <i name="ENMAX">    400.00000000</i>
   <i name="ENAUG">    342.92400000</i>
   <i name="EDIFF">      0.00001000</i>
   <i type="int" name="IALGO">    38</i>
   <i type="int" name="IWAVPR">    11</i>
   <i type="int" name="NBANDS">    40</i>
   <i name="NELECT">     60.00000000</i>
   <i type="int" name="TURBO">     0</i>
   <i type="int" name="IRESTART">     0</i>
   <i type="int" name="NREBOOT">     0</i>
   <i type="int" name="NMIN">     0</i>
   <i name="EREF">      0.00000000</i>
   <separator name="electronic smearing" >
    <i type="int" name="ISMEAR">     0</i>
    <i name="SIGMA">      0.01000000</i>
    <i name="KSPACING">      0.50000000</i>
    <i type="logical" name="KGAMMA"> T  </i>
   </separator>
   <separator name="electronic projectors" >
    <i type="logical" name="LREAL"> F  </i>
    <v name="ROPT">      0.00000000</v>
    <i type="int" name="LMAXPAW">  -100</i>
    <i type="int" name="LMAXMIX">     2</i>
    <i type="logical" name="NLSPLINE"> F  </i>
   </separator>
   <separator name="electronic startup" >
    <i type="int" name="ISTART">     0</i>
    <i type="int" name="ICHARG">     2</i>
    <i type="int" name="INIWAV">     1</i>
   </separator>
   <separator name="electronic spin" >
    <i type="int" name="ISPIN">     1</i>
    <i type="logical" name="LNONCOLLINEAR"> F  </i>
    <v name="MAGMOM">      1.00000000      1.00000000      1.00000000      1.00000000      1.00000000      1.00000000      1.00000000      1.00000000      1.00000000      1.00000000      1.00000000      1.00000000</v>
    <i name="NUPDOWN">     -1.00000000</i>
    <i type="logical" name="LSORBIT"> F  </i>
    <v name="SAXIS">      0.00000000      0.00000000      1.00000000</v>
    <i type="logical" name="LSPIRAL"> F  </i>
    <v name="QSPIRAL">      0.00000000      0.00000000      0.00000000</v>
    <i type="logical" name="LZEROZ"> F  </i>
   </separator>
   <separator name="electronic exchange-correlation" >
    <i type="logical" name="LASPH"> T  </i>
    <i type="logical" name="LMETAGGA"> F  </i>
   </separator>
   <separator name="electronic convergence" >
    <i type="int" name="NELM">   200</i>
    <i type="int" name="NELMDL">     0</i>
    <i type="int" name="NELMIN">     2</i>
    <i name="ENINI">    400.00000000</i>
    <separator name="electronic convergence detail" >
     <i type="logical" name="LDIAG"> T  </i>
     <i type="logical" name="LSUBROT"> F  </i>
     <i name="WEIMIN">      0.00000000</i>
     <i name="EBREAK">      0.00000006</i>
     <i name="DEPER">      0.30000000</i>
     <i type="int" name="NRMM">     4</i>
     <i name="TIME">      0.40000000</i>
    </separator>
   </separator>
   <separator name="electronic mixer" >
    <i name="AMIX">      0.40000000</i>
    <i name="BMIX">      1.00000000</i>
    <i name="AMIN">      0.10000000</i>
    <i name="AMIX_MAG">      1.60000000</i>
    <i name="BMIX_MAG">      1.00000000</i>
    <separator name="electronic mixer details" >
     <i type="int" name="IMIX">     4</i>
     <i type="logical" name="MIXFIRST"> F  </i>
     <i type="int" name="MAXMIX">   -45</i>
     <i name="WC">    100.00000000</i>
     <i type="int" name="INIMIX">     1</i>
     <i type="int" name="MIXPRE">     1</i>
     <i type="int" name="MREMOVE">     5</i>
    </separator>
   </separator>
   <separator name="electronic dipolcorrection" >
    <i type="logical" name="LDIPOL"> F  </i>
    <i type="logical" name="LMONO"> F  </i>
    <i type="int" name="IDIPOL">     0</i>
    <i name="EPSILON">      1.00000000</i>
    <v name="DIPOL">   -100.00000000   -100.00000000   -100.00000000</v>
    <i name="EFIELD">      0.00000000</i>
   </separator>
  </separator>
  <separator name="grids" >
   <i type="int" name="NGX">    16</i>
   <i type="int" name="NGY">   160</i>
   <i type="int" name="NGZ">    24</i>
   <i type="int" name="NGXF">    32</i>
   <i type="int" name="NGYF">   320</i>
   <i type="int" name="NGZF">    48</i>
   <i type="logical" name="ADDGRID"> F  </i>
  </separator>
  <separator name="ionic" >
   <i type="int" name="NSW">     0</i>
   <i type="int" name="IBRION">    -1</i>
   <i type="int" name="MDALGO">     0</i>
   <i type="int" name="ISIF">     3</i>
   <i name="PSTRESS">      0.00000000</i>
   <i name="EDIFFG">     -0.02000000</i>
   <i type="int" name="NFREE">     1</i>
   <i name="POTIM">      0.50000000</i>
   <i name="SMASS">     -3.00000000</i>
   <i name="SCALEE">      1.00000000</i>
  </separator>
  <separator name="ionic md" >
   <i name="TEBEG">      0.00010000</i>
   <i name="TEEND">      0.00010000</i>
   <i type="int" name="NBLOCK">     1</i>
   <i type="int" name="KBLOCK">     1</i>
   <i type="int" name="NPACO">   256</i>
   <i name="APACO">     16.00000000</i>
  </separator>
  <separator name="symmetry" >
   <i type="int" name="ISYM">     2</i>
   <i name="SYMPREC">      0.00001000</i>
  </separator>
  <separator name="dos" >
   <i type="int" name="LORBIT">    11</i>
   <v name="RWIGS">     -1.00000000</v>
   <i type="int" name="NEDOS">  2000</i>
   <i name="EMIN">     10.00000000</i>
   <i name="EMAX">    -10.00000000</i>
   <i name="EFERMI">      0.00000000</i>
  </separator>
  <separator name="writing" >
   <i type="int" name="NWRITE">     2</i>
   <i type="logical" name="LWAVE"> T  </i>
   <i type="logical" name="LDOWNSAMPLE"> F  </i>
   <i type="logical" name="LCHARG"> T  </i>
   <i type="logical" name="LPARD"> F  </i>
   <i type="logical" name="LVTOT"> F  </i>
   <i type="logical" name="LVHAR"> T  </i>
   <i type="logical" name="LELF"> F  </i>
   <i type="logical" name="LOPTICS"> F  </i>
   <v name="STM">      0.00000000      0.00000000      0.00000000      0.00000000      0.00000000      0.00000000      0.00000000</v>
  </separator>
  <separator name="performance" >
   <i type="int" name="NPAR">     4</i>
   <i type="int" name="NSIM">     4</i>
   <i type="int" name="NBLK">    -1</i>
   <i type="logical" name="LPLANE"> T  </i>
   <i type="logical" name="LSCALAPACK"> T  </i>
   <i type="logical" name="LSCAAWARE"> F  </i>
   <i type="logical" name="LSCALU"> F  </i>
   <i type="logical" name="LASYNC"> F  </i>
   <i type="logical" name="LORBITALREAL"> F  </i>
  </separator>
  <separator name="miscellaneous" >
   <i type="int" name="IDIOT">     3</i>
   <i type="int" name="ISPECIAL">     0</i>
   <i type="logical" name="LMUSIC"> F  </i>
   <v name="POMASS">     30.97400000</v>
   <v name="DARWINR">      0.00000000</v>
   <v name="DARWINV">      1.00000000</v>
   <i type="logical" name="LCORR"> T  </i>
  </separator>
  <i type="logical" name="GGA_COMPAT"> T  </i>
  <i type="logical" name="LBERRY"> F  </i>
  <i type="int" name="ICORELEVEL">     1</i>
  <i type="int" name="CLNT">     1</i>
  <i type="int" name="CLN">     1</i>
  <i type="int" name="CLL">     0</i>
  <i name="CLZ">      0.00000000</i>
  <i type="logical" name="LDAU"> F  </i>
  <i type="int" name="I_CONSTRAINED_M">     0</i>
  <separator name="electronic exchange-correlation" >
   <i type="string" name="GGA">PE</i>
   <i type="int" name="VOSKOWN">     0</i>
   <i type="logical" name="LHFCALC"> F  </i>
   <i type="string" name="PRECFOCK"></i>
   <i type="logical" name="LSYMGRAD"> F  </i>
   <i type="logical" name="LHFONE"> F  </i>
   <i type="logical" name="LRHFCALC"> F  </i>
   <i type="logical" name="LTHOMAS"> F  </i>
   <i type="logical" name="LMODELHF"> F  </i>
   <i name="ENCUT4O">     -1.00000000</i>
   <i type="int" name="EXXOEP">     0</i>
   <i type="int" name="FOURORBIT">     0</i>
   <i name="AEXX">      0.00000000</i>
   <i name="HFALPHA">      0.00000000</i>
   <i name="MCALPHA">      0.00000000</i>
   <i name="ALDAX">      1.00000000</i>
   <i name="AGGAX">      1.00000000</i>
   <i name="ALDAC">      1.00000000</i>
   <i name="AGGAC">      1.00000000</i>
   <i type="int" name="NKREDX">     1</i>
   <i type="int" name="NKREDY">     1</i>
   <i type="int" name="NKREDZ">     1</i>
   <i type="logical" name="SHIFTRED"> F  </i>
   <i type="logical" name="ODDONLY"> F  </i>
   <i type="logical" name="EVENONLY"> F  </i>
   <i type="int" name="LMAXFOCK">     0</i>
   <i type="int" name="NMAXFOCKAE">     0</i>
   <i type="logical" name="LFOCKAEDFT"> F  </i>
   <i name="HFSCREEN">      0.00000000</i>
   <i name="HFSCREENC">      0.00000000</i>
   <i type="int" name="NBANDSGWLOW">     0</i>
  </separator>
  <separator name="vdW DFT" >
   <i type="logical" name="LUSE_VDW"> F  </i>
   <i name="Zab_VDW">     -0.84910000</i>
   <i name="PARAM1">      0.12340000</i>
   <i name="PARAM2">      1.00000000</i>
   <i name="PARAM3">      0.00000000</i>
  </separator>
  <separator name="model GW" >
   <i type="int" name="MODEL_GW">     0</i>
   <i name="MODEL_EPS0">     23.83979645</i>
   <i name="MODEL_ALPHA">      1.00000000</i>
  </separator>
  <separator name="linear response parameters" >
   <i type="logical" name="LEPSILON"> F  </i>
   <i type="logical" name="LRPA"> F  </i>
   <i type="logical" name="LNABLA"> F  </i>
   <i type="logical" name="LVEL"> F  </i>
   <i type="int" name="KINTER">     0</i>
   <i name="CSHIFT">      0.10000000</i>
   <i name="OMEGAMAX">     -1.00000000</i>
   <i name="DEG_THRESHOLD">      0.00200000</i>
   <i name="RTIME">     -0.10000000</i>
   <i name="WPLASMAI">      0.00000000</i>
   <v name="DFIELD">      0.00000000      0.00000000      0.00000000</v>
   <v name="WPLASMA">      0.00000000      0.00000000      0.00000000      0.00000000      0.00000000      0.00000000      0.00000000      0.00000000      0.00000000</v>
  </separator>
  <separator name="orbital magnetization" >
   <i type="logical" name="NUCIND"> F  </i>
   <v name="MAGPOS">      0.00000000      0.00000000      0.00000000</v>
   <i type="logical" name="LNICSALL"> T  </i>
   <i type="logical" name="ORBITALMAG"> F  </i>
   <i type="logical" name="LMAGBLOCH"> F  </i>
   <i type="logical" name="LCHIMAG"> F  </i>
   <i type="logical" name="LGAUGE"> T  </i>
   <i type="int" name="MAGATOM">     0</i>
   <v name="MAGDIPOL">      0.00000000      0.00000000      0.00000000</v>
   <v name="AVECCONST">      0.00000000      0.00000000      0.00000000</v>
  </separator>
  <separator name="response functions" >
   <i type="logical" name="LADDER"> F  </i>
   <i type="logical" name="LRPAFORCE"> F  </i>
   <i type="logical" name="LFXC"> F  </i>
   <i type="logical" name="LHARTREE"> T  </i>
   <i type="int" name="IBSE">     0</i>
   <v type="int" name="KPOINT">    -1     0     0     0</v>
   <i type="logical" name="LTCTE"> F  </i>
   <i type="logical" name="LTETE"> F  </i>
   <i type="logical" name="LTRIPLET"> F  </i>
   <i type="logical" name="LFXCEPS"> F  </i>
   <i type="logical" name="LFXHEG"> F  </i>
   <i type="int" name="NATURALO">     2</i>
   <i type="logical" name="L2ORDER"> F  </i>
   <i type="logical" name="LMP2LT"> F  </i>
   <i type="logical" name="LUSEW"> F  </i>
   <i name="ENCUTGW">     -2.00000000</i>
   <i name="ENCUTGWSOFT">     -2.00000000</i>
   <i name="ENCUTLF">     -1.00000000</i>
   <i type="int" name="LMAXMP2">    -1</i>
   <i name="SCISSOR">      0.00000000</i>
   <i type="int" name="NOMEGA">     0</i>
   <i type="int" name="NOMEGAR">     0</i>
   <i type="int" name="NBANDSGW">    -1</i>
   <i type="int" name="NBANDSO">    -1</i>
   <i type="int" name="NBANDSV">    -1</i>
   <i type="int" name="NELM">   200</i>
   <i type="int" name="NELMHF">     1</i>
   <i type="int" name="DIM">     3</i>
   <i type="int" name="ANTIRES">     0</i>
   <i name="OMEGAMAX">    -30.00000000</i>
   <i name="OMEGAMIN">    -30.00000000</i>
   <i name="OMEGATL">   -200.00000000</i>
   <i type="int" name="OMEGAGRID">   140</i>
   <i name="CSHIFT">     -0.10000000</i>
   <i type="logical" name="SELFENERGY"> F  </i>
   <i type="logical" name="LSPECTRAL"> F  </i>
   <i type="logical" name="LSPECTRALGW"> F  </i>
   <i type="logical" name="LSINGLES"> F  </i>
   <i type="logical" name="LFERMIGW"> F  </i>
   <i type="logical" name="ODDONLYGW"> F  </i>
   <i type="logical" name="EVENONLYGW"> F  </i>
   <i type="int" name="NKREDLFX">     1</i>
   <i type="int" name="NKREDLFY">     1</i>
   <i type="int" name="NKREDLFZ">     1</i>
   <i type="int" name="MAXMEM">  2800</i>
   <i type="int" name="TELESCOPE">     0</i>
   <i type="int" name="TAUPAR">     1</i>
   <i type="int" name="OMEGAPAR">    -1</i>
   <i name="LAMBDA">      1.00000000</i>
  </separator>
  <separator name="External order field" >
   <i name="OFIELD_KAPPA">      0.00000000</i>
   <v name="OFIELD_K">      0.00000000      0.00000000      0.00000000</v>
   <i name="OFIELD_Q6_NEAR">      0.00000000</i>
   <i name="OFIELD_Q6_FAR">      0.00000000</i>
   <i name="OFIELD_A">      0.00000000</i>
  </separator>
 </parameters>
 <atominfo>
  <atoms>      12 </atoms>
  <types>       1 </types>
  <array name="atoms" >
   <dimension dim="1">ion</dimension>
   <field type="string">element</field>
   <field type="int">atomtype</field>
   <set>
    <rc><c>P </c><c>   1</c></rc>
    <rc><c>P </c><c>   1</c></rc>
    <rc><c>P </c><c>   1</c></rc>
    <rc><c>P </c><c>   1</c></rc>
    <rc><c>P </c><c>   1</c></rc>
    <rc><c>P </c><c>   1</c></rc>
    <rc><c>P </c><c>   1</c></rc>
    <rc><c>P </c><c>   1</c></rc>
    <rc><c>P </c><c>   1</c></rc>
    <rc><c>P </c><c>   1</c></rc>
    <rc><c>P </c><c>   1</c></rc>
    <rc><c>P </c><c>   1</c></rc>
   </set>
  </array>
  <array name="atomtypes" >
   <dimension dim="1">type</dimension>
   <field type="int">atomspertype</field>
   <field type="string">element</field>
   <field>mass</field>
   <field>valence</field>
   <field type="string">pseudopotential</field>
   <set>
    <rc><c>  12</c><c>P </c><c>     30.97400000</c><c>      5.00000000</c><c>  PAW_PBE P 06Sep2000                   </c></rc>
   </set>
  </array>
 </atominfo>
 <structure name="initialpos" >
  <crystal>
   <varray name="basis" >
    <v>       3.34288600       0.00000000       0.00000000 </v>
    <v>       0.00000000      32.60240900       0.00000000 </v>
    <v>       0.00000000       0.00000000       4.37483100 </v>
   </varray>
   <i name="volume">    476.79592902 </i>
   <varray name="rec_basis" >
    <v>       0.29914272       0.00000000       0.00000000 </v>
    <v>       0.00000000       0.03067258       0.00000000 </v>
    <v>       0.00000000       0.00000000       0.22858026 </v>
   </varray>
  </crystal>
  <varray name="positions" >
   <v>       0.00000000       0.30672600       0.91892400 </v>
   <v>       0.50000000       0.30672600       0.58107600 </v>
   <v>       0.00000000       0.37246700       0.08107600 </v>
   <v>       0.50000000       0.37246700       0.41892400 </v>
   <v>       0.00000000       0.46712900       0.91892400 </v>
   <v>       0.50000000       0.46712900       0.58107600 </v>
   <v>       0.00000000       0.53287100       0.08107600 </v>
   <v>       0.50000000       0.53287100       0.41892400 </v>
   <v>       0.00000000       0.62753300       0.91892400 </v>
   <v>       0.50000000       0.62753300       0.58107600 </v>
   <v>       0.00000000       0.69327400       0.08107600 </v>
   <v>       0.50000000       0.69327400       0.41892400 </v>
  </varray>
 </structure>
 <calculation>
  <scstep>
   <time name="dav">    0.82    0.82</time>
   <time name="total">    0.92    0.92</time>
   <energy>
    <i name="alphaZ">     30.28014394 </i>
    <i name="ewald">  14975.37070712 </i>
    <i name="hartreedc"> -16930.57457869 </i>
    <i name="XCdc">     40.42313808 </i>
    <i name="pawpsdc">   1677.12035881 </i>
    <i name="pawaedc">  -1579.18296132 </i>
    <i name="eentropy">     -0.00070395 </i>
    <i name="bandstr">     13.90131633 </i>
    <i name="atom">   2112.48864025 </i>
    <i name="e_fr_energy">    339.82606056 </i>
    <i name="e_wo_entrp">    339.82676451 </i>
    <i name="e_0_energy">    339.82641253 </i>
   </energy>
  </scstep>
  <scstep>
   <time name="dav">    1.07    1.09</time>
   <time name="total">    1.07    1.09</time>
   <energy>
    <i name="e_fr_energy">    -26.56465761 </i>
    <i name="e_wo_entrp">    -26.56439732 </i>
    <i name="e_0_energy">    -26.56452747 </i>
   </energy>
  </scstep>
  <scstep>
   <time name="dav">    0.92    0.93</time>
   <time name="total">    0.92    0.93</time>
   <energy>
    <i name="e_fr_energy">    -63.16702753 </i>
    <i name="e_wo_entrp">    -63.16681680 </i>
    <i name="e_0_energy">    -63.16692216 </i>
   </energy>
  </scstep>
  <scstep>
   <time name="dav">    1.08    1.08</time>
   <time name="total">    1.08    1.08</time>
   <energy>
    <i name="e_fr_energy">    -64.53890249 </i>
    <i name="e_wo_entrp">    -64.53858805 </i>
    <i name="e_0_energy">    -64.53874527 </i>
   </energy>
  </scstep>
  <scstep>
   <time name="dav">    1.12    1.12</time>
   <time name="total">    1.16    1.16</time>
   <energy>
    <i name="e_fr_energy">    -64.57354428 </i>
    <i name="e_wo_entrp">    -64.57325021 </i>
    <i name="e_0_energy">    -64.57339724 </i>
   </energy>
  </scstep>
  <scstep>
   <time name="dav">    1.01    1.01</time>
   <time name="total">    1.13    1.13</time>
   <energy>
    <i name="e_fr_energy">    -64.23969424 </i>
    <i name="e_wo_entrp">    -64.23944768 </i>
    <i name="e_0_energy">    -64.23957096 </i>
   </energy>
  </scstep>
  <scstep>
   <time name="dav">    0.96    0.96</time>
   <time name="total">    1.08    1.09</time>
   <energy>
    <i name="e_fr_energy">    -64.09313865 </i>
    <i name="e_wo_entrp">    -64.09285889 </i>
    <i name="e_0_energy">    -64.09299877 </i>
   </energy>
  </scstep>
  <scstep>
   <time name="dav">    1.00    1.00</time>
   <time name="total">    1.12    1.13</time>
   <energy>
    <i name="e_fr_energy">    -64.09408185 </i>
    <i name="e_wo_entrp">    -64.09383176 </i>
    <i name="e_0_energy">    -64.09395680 </i>
   </energy>
  </scstep>
  <scstep>
   <time name="dav">    1.04    1.06</time>
   <time name="total">    1.16    1.18</time>
   <energy>
    <i name="e_fr_energy">    -64.09379477 </i>
    <i name="e_wo_entrp">    -64.09354957 </i>
    <i name="e_0_energy">    -64.09367217 </i>
   </energy>
  </scstep>
  <scstep>
   <time name="dav">    0.96    0.96</time>
   <time name="total">    1.08    1.08</time>
   <energy>
    <i name="e_fr_energy">    -64.09354981 </i>
    <i name="e_wo_entrp">    -64.09330966 </i>
    <i name="e_0_energy">    -64.09342973 </i>
   </energy>
  </scstep>
  <scstep>
   <time name="dav">    0.99    0.99</time>
   <time name="total">    1.11    1.12</time>
   <energy>
    <i name="e_fr_energy">    -64.09346725 </i>
    <i name="e_wo_entrp">    -64.09322645 </i>
    <i name="e_0_energy">    -64.09334685 </i>
   </energy>
  </scstep>
  <scstep>
   <time name="dav">    0.94    0.94</time>
   <time name="total">    1.06    1.06</time>
   <energy>
    <i name="e_fr_energy">    -64.09352712 </i>
    <i name="e_wo_entrp">    -64.09328617 </i>
    <i name="e_0_energy">    -64.09340664 </i>
   </energy>
  </scstep>
  <scstep>
   <time name="dav">    0.92    0.92</time>
   <time name="total">    1.04    1.04</time>
   <energy>
    <i name="e_fr_energy">    -64.09367441 </i>
    <i name="e_wo_entrp">    -64.09343195 </i>
    <i name="e_0_energy">    -64.09355318 </i>
   </energy>
  </scstep>
  <scstep>
   <time name="dav">    0.77    0.77</time>
   <time name="total">    0.88    0.89</time>
   <energy>
    <i name="e_fr_energy">    -64.09383107 </i>
    <i name="e_wo_entrp">    -64.09358788 </i>
    <i name="e_0_energy">    -64.09370947 </i>
   </energy>
  </scstep>
  <scstep>
   <time name="dav">    0.82    0.82</time>
   <time name="total">    0.94    0.94</time>
   <energy>
    <i name="e_fr_energy">    -64.09407450 </i>
    <i name="e_wo_entrp">    -64.09383019 </i>
    <i name="e_0_energy">    -64.09395234 </i>
   </energy>
  </scstep>
  <scstep>
   <time name="dav">    0.75    0.75</time>
   <time name="total">    0.87    0.87</time>
   <energy>
    <i name="e_fr_energy">    -64.09411173 </i>
    <i name="e_wo_entrp">    -64.09386761 </i>
    <i name="e_0_energy">    -64.09398967 </i>
   </energy>
  </scstep>
  <scstep>
   <time name="dav">    0.74    0.74</time>
   <time name="total">    0.86    0.86</time>
   <energy>
    <i name="e_fr_energy">    -64.09418006 </i>
    <i name="e_wo_entrp">    -64.09393606 </i>
    <i name="e_0_energy">    -64.09405806 </i>
   </energy>
  </scstep>
  <scstep>
   <time name="dav">    0.69    0.69</time>
   <time name="total">    0.81    0.81</time>
   <energy>
    <i name="e_fr_energy">    -64.09419315 </i>
    <i name="e_wo_entrp">    -64.09394912 </i>
    <i name="e_0_energy">    -64.09407113 </i>
   </energy>
  </scstep>
  <scstep>
   <time name="dav">    0.72    0.72</time>
   <time name="total">    0.84    0.84</time>
   <energy>
    <i name="e_fr_energy">    -64.09421212 </i>
    <i name="e_wo_entrp">    -64.09396803 </i>
    <i name="e_0_energy">    -64.09409008 </i>
   </energy>
  </scstep>
  <scstep>
   <time name="dav">    0.70    0.70</time>
   <time name="total">    0.86    0.87</time>
   <energy>
    <i name="alphaZ">     30.28014394 </i>
    <i name="ewald">  14975.37070712 </i>
    <i name="hartreedc"> -16966.55281994 </i>
    <i name="XCdc">     43.26366022 </i>
    <i name="pawpsdc">   6348.09007302 </i>
    <i name="pawaedc">  -6251.06689037 </i>
    <i name="eentropy">     -0.00024411 </i>
    <i name="bandstr">   -355.96749035 </i>
    <i name="atom">   2112.48864025 </i>
    <i name="e_fr_energy">    -64.09422023 </i>
    <i name="e_wo_entrp">    -64.09397612 </i>
    <i name="e_0_energy">    -64.09409817 </i>
   </energy>
  </scstep>
  <structure>
   <crystal>
    <varray name="basis" >
     <v>       3.34288600       0.00000000       0.00000000 </v>
     <v>       0.00000000      32.60240900       0.00000000 </v>
     <v>       0.00000000       0.00000000       4.37483100 </v>
    </varray>
    <i name="volume">    476.79592902 </i>
    <varray name="rec_basis" >
     <v>       0.29914272       0.00000000       0.00000000 </v>
     <v>       0.00000000       0.03067258       0.00000000 </v>
     <v>       0.00000000       0.00000000       0.22858026 </v>
    </varray>
   </crystal>
   <varray name="positions" >
    <v>       0.00000000       0.30672600       0.91892400 </v>
    <v>       0.50000000       0.30672600       0.58107600 </v>
    <v>       0.00000000       0.37246700       0.08107600 </v>
    <v>       0.50000000       0.37246700       0.41892400 </v>
    <v>       0.00000000       0.46712900       0.91892400 </v>
    <v>       0.50000000       0.46712900       0.58107600 </v>
    <v>       0.00000000       0.53287100       0.08107600 </v>
    <v>       0.50000000       0.53287100       0.41892400 </v>
    <v>       0.00000000       0.62753300       0.91892400 </v>
    <v>       0.50000000       0.62753300       0.58107600 </v>
    <v>       0.00000000       0.69327400       0.08107600 </v>
    <v>       0.50000000       0.69327400       0.41892400 </v>
   </varray>
  </structure>
  <varray name="forces" >
   <v>       0.00000000      -0.11918397      -0.14537123 </v>
   <v>       0.00000000      -0.11918397       0.14537123 </v>
   <v>      -0.00000000      -0.09367181      -0.09665750 </v>
   <v>      -0.00000000      -0.09367181       0.09665750 </v>
   <v>      -0.00000000      -0.08011989       0.00765153 </v>
   <v>      -0.00000000      -0.08011989      -0.00765153 </v>
   <v>      -0.00000000       0.08011989      -0.00765153 </v>
   <v>      -0.00000000       0.08011989       0.00765153 </v>
   <v>       0.00000000       0.09367181       0.09665750 </v>
   <v>      -0.00000000       0.09367181      -0.09665750 </v>
   <v>      -0.00000000       0.11918397       0.14537123 </v>
   <v>      -0.00000000       0.11918397      -0.14537123 </v>
  </varray>
  <varray name="stress" >
   <v>      -5.69060108       0.00000000       0.00000000 </v>
   <v>       0.00000000      16.47596520       0.00000000 </v>
   <v>       0.00000000      -0.00000000      -0.13626570 </v>
  </varray>
  <energy>
   <i name="e_fr_energy">    -66.18470941 </i>
   <i name="e_wo_entrp">    -66.18458735 </i>
   <i name="e_0_energy">     -0.00024411 </i>
  </energy>
  <time name="totalsc">   21.91   22.01</time>
  <eigenvalues>
   <array>
    <dimension dim="1">band</dimension>
    <dimension dim="2">kpoint</dimension>
    <dimension dim="3">spin</dimension>
    <field>eigene</field>
    <field>occ</field>
    <set>
     <set comment="spin 1">
      <set comment="kpoint 1">
       <r>  -14.9490    1.0000 </r>
       <r>  -14.7672    1.0000 </r>
       <r>  -14.7100    1.0000 </r>
       <r>  -12.4762    1.0000 </r>
       <r>  -12.1656    1.0000 </r>
       <r>  -12.0076    1.0000 </r>
       <r>   -8.7191    1.0000 </r>
       <r>   -8.5529    1.0000 </r>
       <r>   -8.5097    1.0000 </r>
       <r>   -6.0589    1.0000 </r>
       <r>   -5.6238    1.0000 </r>
       <r>   -5.1776    1.0000 </r>
       <r>   -4.7887    1.0000 </r>
       <r>   -4.5831    1.0000 </r>
       <r>   -4.2695    1.0000 </r>
       <r>   -4.1763    1.0000 </r>
       <r>   -4.0371    1.0000 </r>
       <r>   -3.8462    1.0000 </r>
       <r>   -3.4875    1.0000 </r>
       <r>   -3.3263    1.0000 </r>
       <r>   -3.2896    1.0000 </r>
       <r>   -2.0112    1.0000 </r>
       <r>   -1.8271    1.0000 </r>
       <r>   -1.6795    1.0000 </r>
       <r>   -1.6220    1.0000 </r>
       <r>   -1.5629    1.0000 </r>
       <r>   -1.1206    1.0000 </r>
       <r>   -0.5619    1.0000 </r>
       <r>    0.3331    1.0000 </r>
       <r>    0.9022    1.0000 </r>
       <r>    1.0181    1.0000 </r>
       <r>    1.4398    0.0000 </r>
       <r>    1.4947    0.0000 </r>
       <r>    1.6365    0.0000 </r>
       <r>    1.6661    0.0000 </r>
       <r>    1.9292    0.0000 </r>
       <r>    2.6513    0.0000 </r>
       <r>    2.8600    0.0000 </r>
       <r>    2.8988    0.0000 </r>
       <r>    3.5974    0.0000 </r>
      </set>
      <set comment="kpoint 2">
       <r>  -14.7672    1.0000 </r>
       <r>  -14.5856    1.0000 </r>
       <r>  -14.5287    1.0000 </r>
       <r>  -12.2877    1.0000 </r>
       <r>  -11.9770    1.0000 </r>
       <r>  -11.8188    1.0000 </r>
       <r>   -8.8811    1.0000 </r>
       <r>   -8.7150    1.0000 </r>
       <r>   -8.6720    1.0000 </r>
       <r>   -5.9048    1.0000 </r>
       <r>   -5.4729    1.0000 </r>
       <r>   -5.0684    1.0000 </r>
       <r>   -5.0399    1.0000 </r>
       <r>   -4.5884    1.0000 </r>
       <r>   -4.4278    1.0000 </r>
       <r>   -4.2467    1.0000 </r>
       <r>   -4.2245    1.0000 </r>
       <r>   -4.0808    1.0000 </r>
       <r>   -4.0388    1.0000 </r>
       <r>   -4.0248    1.0000 </r>
       <r>   -3.8814    1.0000 </r>
       <r>   -2.5575    1.0000 </r>
       <r>   -2.3210    1.0000 </r>
       <r>   -2.1994    1.0000 </r>
       <r>   -1.9399    1.0000 </r>
       <r>   -1.5831    1.0000 </r>
       <r>   -1.0112    1.0000 </r>
       <r>   -0.6603    1.0000 </r>
       <r>    0.2480    1.0000 </r>
       <r>    1.0490    0.4947 </r>
       <r>    1.0669    0.0053 </r>
       <r>    1.6322    0.0000 </r>
       <r>    1.7810    0.0000 </r>
       <r>    2.7406    0.0000 </r>
       <r>    2.8158    0.0000 </r>
       <r>    2.8704    0.0000 </r>
       <r>    2.8910    0.0000 </r>
       <r>    3.0107    0.0000 </r>
       <r>    3.1282    0.0000 </r>
       <r>    3.8311    0.0000 </r>
      </set>
      <set comment="kpoint 3">
       <r>  -14.2269    1.0000 </r>
       <r>  -14.0462    1.0000 </r>
       <r>  -13.9901    1.0000 </r>
       <r>  -11.7251    1.0000 </r>
       <r>  -11.4138    1.0000 </r>
       <r>  -11.2549    1.0000 </r>
       <r>   -9.5731    1.0000 </r>
       <r>   -9.4047    1.0000 </r>
       <r>   -9.3603    1.0000 </r>
       <r>   -6.2887    1.0000 </r>
       <r>   -5.9146    1.0000 </r>
       <r>   -5.6859    1.0000 </r>
       <r>   -5.4640    1.0000 </r>
       <r>   -5.0475    1.0000 </r>
       <r>   -5.0106    1.0000 </r>
       <r>   -4.8435    1.0000 </r>
       <r>   -4.8037    1.0000 </r>
       <r>   -4.6676    1.0000 </r>
       <r>   -3.9888    1.0000 </r>
       <r>   -3.6010    1.0000 </r>
       <r>   -3.4377    1.0000 </r>
       <r>   -2.9599    1.0000 </r>
       <r>   -2.6439    1.0000 </r>
       <r>   -2.3738    1.0000 </r>
       <r>   -1.8861    1.0000 </r>
       <r>   -1.4354    1.0000 </r>
       <r>   -1.0672    1.0000 </r>
       <r>   -0.8264    1.0000 </r>
       <r>   -0.1972    1.0000 </r>
       <r>    0.5599    1.0000 </r>
       <r>    1.3124    0.0000 </r>
       <r>    1.3691    0.0000 </r>
       <r>    1.6358    0.0000 </r>
       <r>    1.6689    0.0000 </r>
       <r>    2.2645    0.0000 </r>
       <r>    2.4305    0.0000 </r>
       <r>    3.1405    0.0000 </r>
       <r>    3.4669    0.0000 </r>
       <r>    3.5286    0.0000 </r>
       <r>    3.6518    0.0000 </r>
      </set>
      <set comment="kpoint 4">
       <r>  -13.3470    1.0000 </r>
       <r>  -13.1679    1.0000 </r>
       <r>  -13.1135    1.0000 </r>
       <r>  -10.8181    1.0000 </r>
       <r>  -10.7985    1.0000 </r>
       <r>  -10.6450    1.0000 </r>
       <r>  -10.5966    1.0000 </r>
       <r>  -10.4854    1.0000 </r>
       <r>  -10.3244    1.0000 </r>
       <r>   -7.9717    1.0000 </r>
       <r>   -7.6405    1.0000 </r>
       <r>   -7.4598    1.0000 </r>
       <r>   -4.9313    1.0000 </r>
       <r>   -4.8472    1.0000 </r>
       <r>   -4.7691    1.0000 </r>
       <r>   -4.7365    1.0000 </r>
       <r>   -4.4928    1.0000 </r>
       <r>   -4.2596    1.0000 </r>
       <r>   -3.3997    1.0000 </r>
       <r>   -3.0777    1.0000 </r>
       <r>   -2.8102    1.0000 </r>
       <r>   -2.8023    1.0000 </r>
       <r>   -2.5649    1.0000 </r>
       <r>   -2.1938    1.0000 </r>
       <r>   -2.1432    1.0000 </r>
       <r>   -1.7030    1.0000 </r>
       <r>   -1.6135    1.0000 </r>
       <r>   -1.0448    1.0000 </r>
       <r>   -0.9399    1.0000 </r>
       <r>   -0.2988    1.0000 </r>
       <r>    1.1036    0.0000 </r>
       <r>    1.1981    0.0000 </r>
       <r>    1.4401    0.0000 </r>
       <r>    1.6580    0.0000 </r>
       <r>    1.9660    0.0000 </r>
       <r>    2.0751    0.0000 </r>
       <r>    2.3369    0.0000 </r>
       <r>    2.4229    0.0000 </r>
       <r>    2.5037    0.0000 </r>
       <r>    2.7400    0.0000 </r>
      </set>
      <set comment="kpoint 5">
       <r>  -12.1730    1.0000 </r>
       <r>  -12.1730    1.0000 </r>
       <r>  -11.9963    1.0000 </r>
       <r>  -11.9963    1.0000 </r>
       <r>  -11.9444    1.0000 </r>
       <r>  -11.9444    1.0000 </r>
       <r>   -9.5298    1.0000 </r>
       <r>   -9.5298    1.0000 </r>
       <r>   -9.2120    1.0000 </r>
       <r>   -9.2120    1.0000 </r>
       <r>   -9.0459    1.0000 </r>
       <r>   -9.0459    1.0000 </r>
       <r>   -4.5512    1.0000 </r>
       <r>   -4.5512    1.0000 </r>
       <r>   -4.3537    1.0000 </r>
       <r>   -4.3537    1.0000 </r>
       <r>   -4.3035    1.0000 </r>
       <r>   -4.3035    1.0000 </r>
       <r>   -2.9436    1.0000 </r>
       <r>   -2.9436    1.0000 </r>
       <r>   -2.8947    1.0000 </r>
       <r>   -2.8947    1.0000 </r>
       <r>   -2.2614    1.0000 </r>
       <r>   -2.2614    1.0000 </r>
       <r>   -2.1130    1.0000 </r>
       <r>   -2.1130    1.0000 </r>
       <r>   -1.5319    1.0000 </r>
       <r>   -1.5319    1.0000 </r>
       <r>   -1.0146    1.0000 </r>
       <r>   -1.0146    1.0000 </r>
       <r>    1.1875    0.0000 </r>
       <r>    1.1875    0.0000 </r>
       <r>    1.6077    0.0000 </r>
       <r>    1.6077    0.0000 </r>
       <r>    1.9630    0.0000 </r>
       <r>    1.9631    0.0000 </r>
       <r>    2.0066    0.0000 </r>
       <r>    2.0066    0.0000 </r>
       <r>    2.0845    0.0000 </r>
       <r>    2.0848    0.0000 </r>
      </set>
      <set comment="kpoint 6">
       <r>  -14.7919    1.0000 </r>
       <r>  -14.6127    1.0000 </r>
       <r>  -14.5584    1.0000 </r>
       <r>  -12.5575    1.0000 </r>
       <r>  -12.3021    1.0000 </r>
       <r>  -12.2064    1.0000 </r>
       <r>   -8.9237    1.0000 </r>
       <r>   -8.7870    1.0000 </r>
       <r>   -8.7580    1.0000 </r>
       <r>   -6.3796    1.0000 </r>
       <r>   -6.1455    1.0000 </r>
       <r>   -6.0993    1.0000 </r>
       <r>   -4.6155    1.0000 </r>
       <r>   -4.4757    1.0000 </r>
       <r>   -3.9214    1.0000 </r>
       <r>   -3.7324    1.0000 </r>
       <r>   -3.3628    1.0000 </r>
       <r>   -3.3515    1.0000 </r>
       <r>   -3.3468    1.0000 </r>
       <r>   -3.2047    1.0000 </r>
       <r>   -3.1710    1.0000 </r>
       <r>   -1.8798    1.0000 </r>
       <r>   -1.6938    1.0000 </r>
       <r>   -1.6539    1.0000 </r>
       <r>   -1.3786    1.0000 </r>
       <r>   -0.9999    1.0000 </r>
       <r>   -0.9009    1.0000 </r>
       <r>   -0.6258    1.0000 </r>
       <r>   -0.4784    1.0000 </r>
       <r>    0.1260    1.0000 </r>
       <r>    1.6486    0.0000 </r>
       <r>    1.7317    0.0000 </r>
       <r>    1.8325    0.0000 </r>
       <r>    1.9340    0.0000 </r>
       <r>    2.2115    0.0000 </r>
       <r>    2.3850    0.0000 </r>
       <r>    2.4319    0.0000 </r>
       <r>    2.5823    0.0000 </r>
       <r>    2.6069    0.0000 </r>
       <r>    3.3798    0.0000 </r>
      </set>
      <set comment="kpoint 7">
       <r>  -14.6112    1.0000 </r>
       <r>  -14.4322    1.0000 </r>
       <r>  -14.3782    1.0000 </r>
       <r>  -12.3738    1.0000 </r>
       <r>  -12.1200    1.0000 </r>
       <r>  -12.0265    1.0000 </r>
       <r>   -8.9877    1.0000 </r>
       <r>   -8.8545    1.0000 </r>
       <r>   -8.8316    1.0000 </r>
       <r>   -6.3428    1.0000 </r>
       <r>   -6.0487    1.0000 </r>
       <r>   -6.0437    1.0000 </r>
       <r>   -4.7616    1.0000 </r>
       <r>   -4.7463    1.0000 </r>
       <r>   -4.4465    1.0000 </r>
       <r>   -4.3391    1.0000 </r>
       <r>   -4.1411    1.0000 </r>
       <r>   -3.9156    1.0000 </r>
       <r>   -3.2336    1.0000 </r>
       <r>   -3.0661    1.0000 </r>
       <r>   -2.9578    1.0000 </r>
       <r>   -2.6781    1.0000 </r>
       <r>   -2.5999    1.0000 </r>
       <r>   -2.5945    1.0000 </r>
       <r>   -1.3684    1.0000 </r>
       <r>   -1.0593    1.0000 </r>
       <r>   -0.9075    1.0000 </r>
       <r>   -0.6079    1.0000 </r>
       <r>   -0.4676    1.0000 </r>
       <r>    0.1968    1.0000 </r>
       <r>    1.7713    0.0000 </r>
       <r>    2.1782    0.0000 </r>
       <r>    2.3868    0.0000 </r>
       <r>    2.6217    0.0000 </r>
       <r>    2.7504    0.0000 </r>
       <r>    2.8065    0.0000 </r>
       <r>    2.9731    0.0000 </r>
       <r>    3.1369    0.0000 </r>
       <r>    3.1783    0.0000 </r>
       <r>    3.7986    0.0000 </r>
      </set>
      <set comment="kpoint 8">
       <r>  -14.0753    1.0000 </r>
       <r>  -13.8971    1.0000 </r>
       <r>  -13.8438    1.0000 </r>
       <r>  -11.8342    1.0000 </r>
       <r>  -11.5896    1.0000 </r>
       <r>  -11.5085    1.0000 </r>
       <r>   -9.4307    1.0000 </r>
       <r>   -9.3034    1.0000 </r>
       <r>   -9.2896    1.0000 </r>
       <r>   -6.6980    1.0000 </r>
       <r>   -6.3526    1.0000 </r>
       <r>   -6.1836    1.0000 </r>
       <r>   -5.5653    1.0000 </r>
       <r>   -5.4731    1.0000 </r>
       <r>   -5.3450    1.0000 </r>
       <r>   -4.9904    1.0000 </r>
       <r>   -4.6590    1.0000 </r>
       <r>   -4.6062    1.0000 </r>
       <r>   -3.2945    1.0000 </r>
       <r>   -3.2695    1.0000 </r>
       <r>   -3.0061    1.0000 </r>
       <r>   -2.9058    1.0000 </r>
       <r>   -2.6896    1.0000 </r>
       <r>   -2.6164    1.0000 </r>
       <r>   -1.6094    1.0000 </r>
       <r>   -1.4489    1.0000 </r>
       <r>   -1.2818    1.0000 </r>
       <r>   -0.8994    1.0000 </r>
       <r>   -0.5452    1.0000 </r>
       <r>    0.1270    1.0000 </r>
       <r>    1.7661    0.0000 </r>
       <r>    1.8422    0.0000 </r>
       <r>    2.1011    0.0000 </r>
       <r>    2.2242    0.0000 </r>
       <r>    2.5817    0.0000 </r>
       <r>    2.5910    0.0000 </r>
       <r>    2.6884    0.0000 </r>
       <r>    2.9089    0.0000 </r>
       <r>    3.1176    0.0000 </r>
       <r>    4.0499    0.0000 </r>
      </set>
      <set comment="kpoint 9">
       <r>  -13.2076    1.0000 </r>
       <r>  -13.0308    1.0000 </r>
       <r>  -12.9788    1.0000 </r>
       <r>  -11.1373    1.0000 </r>
       <r>  -11.0009    1.0000 </r>
       <r>  -10.9801    1.0000 </r>
       <r>  -10.2871    1.0000 </r>
       <r>  -10.1107    1.0000 </r>
       <r>  -10.0362    1.0000 </r>
       <r>   -8.0699    1.0000 </r>
       <r>   -7.7670    1.0000 </r>
       <r>   -7.6201    1.0000 </r>
       <r>   -5.4837    1.0000 </r>
       <r>   -5.3660    1.0000 </r>
       <r>   -5.2754    1.0000 </r>
       <r>   -4.7044    1.0000 </r>
       <r>   -4.4538    1.0000 </r>
       <r>   -4.4486    1.0000 </r>
       <r>   -3.4187    1.0000 </r>
       <r>   -3.2152    1.0000 </r>
       <r>   -2.9749    1.0000 </r>
       <r>   -2.9441    1.0000 </r>
       <r>   -2.7843    1.0000 </r>
       <r>   -2.5761    1.0000 </r>
       <r>   -2.2234    1.0000 </r>
       <r>   -1.7657    1.0000 </r>
       <r>   -1.4802    1.0000 </r>
       <r>   -1.0940    1.0000 </r>
       <r>   -0.7868    1.0000 </r>
       <r>   -0.2180    1.0000 </r>
       <r>    1.4791    0.0000 </r>
       <r>    1.6891    0.0000 </r>
       <r>    1.9470    0.0000 </r>
       <r>    2.0464    0.0000 </r>
       <r>    2.1379    0.0000 </r>
       <r>    2.4101    0.0000 </r>
       <r>    2.5592    0.0000 </r>
       <r>    2.5684    0.0000 </r>
       <r>    2.8975    0.0000 </r>
       <r>    3.0022    0.0000 </r>
      </set>
      <set comment="kpoint 10">
       <r>  -12.0763    1.0000 </r>
       <r>  -12.0763    1.0000 </r>
       <r>  -11.9016    1.0000 </r>
       <r>  -11.9016    1.0000 </r>
       <r>  -11.8517    1.0000 </r>
       <r>  -11.8517    1.0000 </r>
       <r>   -9.5416    1.0000 </r>
       <r>   -9.5416    1.0000 </r>
       <r>   -9.2524    1.0000 </r>
       <r>   -9.2524    1.0000 </r>
       <r>   -9.1190    1.0000 </r>
       <r>   -9.1190    1.0000 </r>
       <r>   -4.8879    1.0000 </r>
       <r>   -4.8879    1.0000 </r>
       <r>   -4.6410    1.0000 </r>
       <r>   -4.6410    1.0000 </r>
       <r>   -4.5271    1.0000 </r>
       <r>   -4.5271    1.0000 </r>
       <r>   -3.6050    1.0000 </r>
       <r>   -3.6050    1.0000 </r>
       <r>   -3.2046    1.0000 </r>
       <r>   -3.2046    1.0000 </r>
       <r>   -2.7749    1.0000 </r>
       <r>   -2.7749    1.0000 </r>
       <r>   -1.9617    1.0000 </r>
       <r>   -1.9617    1.0000 </r>
       <r>   -1.2504    1.0000 </r>
       <r>   -1.2504    1.0000 </r>
       <r>   -0.5518    1.0000 </r>
       <r>   -0.5518    1.0000 </r>
       <r>    1.2380    0.0000 </r>
       <r>    1.2380    0.0000 </r>
       <r>    1.6665    0.0000 </r>
       <r>    1.6665    0.0000 </r>
       <r>    1.8549    0.0000 </r>
       <r>    1.8549    0.0000 </r>
       <r>    2.9930    0.0000 </r>
       <r>    2.9930    0.0000 </r>
       <r>    3.3400    0.0000 </r>
       <r>    3.3600    0.0000 </r>
      </set>
      <set comment="kpoint 11">
       <r>  -14.3374    1.0000 </r>
       <r>  -14.1681    1.0000 </r>
       <r>  -14.1246    1.0000 </r>
       <r>  -12.9363    1.0000 </r>
       <r>  -12.7812    1.0000 </r>
       <r>  -12.7795    1.0000 </r>
       <r>   -9.1316    1.0000 </r>
       <r>   -8.8466    1.0000 </r>
       <r>   -8.6638    1.0000 </r>
       <r>   -7.6879    1.0000 </r>
       <r>   -7.2830    1.0000 </r>
       <r>   -7.0210    1.0000 </r>
       <r>   -4.5240    1.0000 </r>
       <r>   -3.7971    1.0000 </r>
       <r>   -3.0139    1.0000 </r>
       <r>   -3.0069    1.0000 </r>
       <r>   -2.8665    1.0000 </r>
       <r>   -2.8435    1.0000 </r>
       <r>   -2.7085    1.0000 </r>
       <r>   -2.3638    1.0000 </r>
       <r>   -2.1472    1.0000 </r>
       <r>   -2.0985    1.0000 </r>
       <r>   -1.9680    1.0000 </r>
       <r>   -1.9489    1.0000 </r>
       <r>   -1.9443    1.0000 </r>
       <r>   -1.5998    1.0000 </r>
       <r>   -0.8745    1.0000 </r>
       <r>    0.0214    1.0000 </r>
       <r>    0.1183    1.0000 </r>
       <r>    0.1972    1.0000 </r>
       <r>    1.7388    0.0000 </r>
       <r>    1.8879    0.0000 </r>
       <r>    1.9692    0.0000 </r>
       <r>    2.0618    0.0000 </r>
       <r>    2.2226    0.0000 </r>
       <r>    2.2461    0.0000 </r>
       <r>    2.7872    0.0000 </r>
       <r>    3.1089    0.0000 </r>
       <r>    3.2633    0.0000 </r>
       <r>    3.2787    0.0000 </r>
      </set>
      <set comment="kpoint 12">
       <r>  -14.1601    1.0000 </r>
       <r>  -13.9910    1.0000 </r>
       <r>  -13.9475    1.0000 </r>
       <r>  -12.7629    1.0000 </r>
       <r>  -12.6088    1.0000 </r>
       <r>  -12.6081    1.0000 </r>
       <r>   -9.0841    1.0000 </r>
       <r>   -8.8081    1.0000 </r>
       <r>   -8.6391    1.0000 </r>
       <r>   -7.6086    1.0000 </r>
       <r>   -7.2099    1.0000 </r>
       <r>   -6.9537    1.0000 </r>
       <r>   -4.5144    1.0000 </r>
       <r>   -4.4044    1.0000 </r>
       <r>   -4.1991    1.0000 </r>
       <r>   -4.1134    1.0000 </r>
       <r>   -3.6202    1.0000 </r>
       <r>   -3.3478    1.0000 </r>
       <r>   -3.1225    1.0000 </r>
       <r>   -3.0921    1.0000 </r>
       <r>   -2.8162    1.0000 </r>
       <r>   -2.5879    1.0000 </r>
       <r>   -1.9128    1.0000 </r>
       <r>   -1.8891    1.0000 </r>
       <r>   -1.4401    1.0000 </r>
       <r>   -1.3031    1.0000 </r>
       <r>   -0.7743    1.0000 </r>
       <r>   -0.3815    1.0000 </r>
       <r>   -0.3057    1.0000 </r>
       <r>   -0.2515    1.0000 </r>
       <r>    2.4340    0.0000 </r>
       <r>    2.7643    0.0000 </r>
       <r>    2.8520    0.0000 </r>
       <r>    2.9987    0.0000 </r>
       <r>    3.0326    0.0000 </r>
       <r>    3.2746    0.0000 </r>
       <r>    3.2764    0.0000 </r>
       <r>    3.3048    0.0000 </r>
       <r>    3.4102    0.0000 </r>
       <r>    3.4169    0.0000 </r>
      </set>
      <set comment="kpoint 13">
       <r>  -13.6378    1.0000 </r>
       <r>  -13.4689    1.0000 </r>
       <r>  -13.4257    1.0000 </r>
       <r>  -12.2648    1.0000 </r>
       <r>  -12.1174    1.0000 </r>
       <r>  -12.1149    1.0000 </r>
       <r>   -9.1472    1.0000 </r>
       <r>   -8.9159    1.0000 </r>
       <r>   -8.8101    1.0000 </r>
       <r>   -7.6057    1.0000 </r>
       <r>   -7.2571    1.0000 </r>
       <r>   -7.0607    1.0000 </r>
       <r>   -5.7244    1.0000 </r>
       <r>   -5.5968    1.0000 </r>
       <r>   -5.5212    1.0000 </r>
       <r>   -4.8816    1.0000 </r>
       <r>   -4.7584    1.0000 </r>
       <r>   -4.7137    1.0000 </r>
       <r>   -3.7858    1.0000 </r>
       <r>   -3.2967    1.0000 </r>
       <r>   -2.9820    1.0000 </r>
       <r>   -2.5376    1.0000 </r>
       <r>   -2.1969    1.0000 </r>
       <r>   -2.1540    1.0000 </r>
       <r>   -1.4753    1.0000 </r>
       <r>   -1.3850    1.0000 </r>
       <r>   -1.2640    1.0000 </r>
       <r>   -1.0958    1.0000 </r>
       <r>   -0.9051    1.0000 </r>
       <r>   -0.4161    1.0000 </r>
       <r>    2.1206    0.0000 </r>
       <r>    2.4070    0.0000 </r>
       <r>    2.5459    0.0000 </r>
       <r>    2.7826    0.0000 </r>
       <r>    2.9695    0.0000 </r>
       <r>    3.0342    0.0000 </r>
       <r>    3.4675    0.0000 </r>
       <r>    3.6186    0.0000 </r>
       <r>    3.6770    0.0000 </r>
       <r>    4.2833    0.0000 </r>
      </set>
      <set comment="kpoint 14">
       <r>  -12.8113    1.0000 </r>
       <r>  -12.6424    1.0000 </r>
       <r>  -12.5990    1.0000 </r>
       <r>  -11.6198    1.0000 </r>
       <r>  -11.4736    1.0000 </r>
       <r>  -11.4730    1.0000 </r>
       <r>   -9.7304    1.0000 </r>
       <r>   -9.5399    1.0000 </r>
       <r>   -9.4897    1.0000 </r>
       <r>   -8.4358    1.0000 </r>
       <r>   -8.1913    1.0000 </r>
       <r>   -8.1076    1.0000 </r>
       <r>   -5.9475    1.0000 </r>
       <r>   -5.7574    1.0000 </r>
       <r>   -5.6147    1.0000 </r>
       <r>   -5.0992    1.0000 </r>
       <r>   -4.8467    1.0000 </r>
       <r>   -4.7702    1.0000 </r>
       <r>   -3.9831    1.0000 </r>
       <r>   -3.7845    1.0000 </r>
       <r>   -3.6842    1.0000 </r>
       <r>   -3.1793    1.0000 </r>
       <r>   -2.9809    1.0000 </r>
       <r>   -2.8728    1.0000 </r>
       <r>   -2.3313    1.0000 </r>
       <r>   -1.7353    1.0000 </r>
       <r>   -1.4748    1.0000 </r>
       <r>   -0.9734    1.0000 </r>
       <r>   -0.7585    1.0000 </r>
       <r>   -0.0888    1.0000 </r>
       <r>    1.9653    0.0000 </r>
       <r>    2.2527    0.0000 </r>
       <r>    2.2624    0.0000 </r>
       <r>    2.6455    0.0000 </r>
       <r>    2.9346    0.0000 </r>
       <r>    3.0801    0.0000 </r>
       <r>    3.5979    0.0000 </r>
       <r>    3.7377    0.0000 </r>
       <r>    3.9347    0.0000 </r>
       <r>    4.0231    0.0000 </r>
      </set>
      <set comment="kpoint 15">
       <r>  -11.8498    1.0000 </r>
       <r>  -11.8498    1.0000 </r>
       <r>  -11.6806    1.0000 </r>
       <r>  -11.6806    1.0000 </r>
       <r>  -11.6367    1.0000 </r>
       <r>  -11.6367    1.0000 </r>
       <r>   -9.6140    1.0000 </r>
       <r>   -9.6140    1.0000 </r>
       <r>   -9.3909    1.0000 </r>
       <r>   -9.3909    1.0000 </r>
       <r>   -9.3274    1.0000 </r>
       <r>   -9.3274    1.0000 </r>
       <r>   -5.2469    1.0000 </r>
       <r>   -5.2469    1.0000 </r>
       <r>   -4.9449    1.0000 </r>
       <r>   -4.9449    1.0000 </r>
       <r>   -4.7491    1.0000 </r>
       <r>   -4.7491    1.0000 </r>
       <r>   -4.3688    1.0000 </r>
       <r>   -4.3688    1.0000 </r>
       <r>   -4.0025    1.0000 </r>
       <r>   -4.0025    1.0000 </r>
       <r>   -3.6669    1.0000 </r>
       <r>   -3.6669    1.0000 </r>
       <r>   -1.9971    1.0000 </r>
       <r>   -1.9971    1.0000 </r>
       <r>   -1.1612    1.0000 </r>
       <r>   -1.1612    1.0000 </r>
       <r>   -0.3212    1.0000 </r>
       <r>   -0.3212    1.0000 </r>
       <r>    2.3274    0.0000 </r>
       <r>    2.3274    0.0000 </r>
       <r>    2.5545    0.0000 </r>
       <r>    2.5545    0.0000 </r>
       <r>    3.0020    0.0000 </r>
       <r>    3.0020    0.0000 </r>
       <r>    3.3101    0.0000 </r>
       <r>    3.3101    0.0000 </r>
       <r>    3.5798    0.0000 </r>
       <r>    3.5798    0.0000 </r>
      </set>
      <set comment="kpoint 16">
       <r>  -13.6524    1.0000 </r>
       <r>  -13.6524    1.0000 </r>
       <r>  -13.5499    1.0000 </r>
       <r>  -13.5499    1.0000 </r>
       <r>  -13.4294    1.0000 </r>
       <r>  -13.4294    1.0000 </r>
       <r>   -8.6894    1.0000 </r>
       <r>   -8.6894    1.0000 </r>
       <r>   -8.2975    1.0000 </r>
       <r>   -8.2975    1.0000 </r>
       <r>   -8.0211    1.0000 </r>
       <r>   -8.0211    1.0000 </r>
       <r>   -3.7739    1.0000 </r>
       <r>   -3.7739    1.0000 </r>
       <r>   -2.9077    1.0000 </r>
       <r>   -2.9077    1.0000 </r>
       <r>   -2.5307    1.0000 </r>
       <r>   -2.5307    1.0000 </r>
       <r>   -2.4560    1.0000 </r>
       <r>   -2.4560    1.0000 </r>
       <r>   -2.3228    1.0000 </r>
       <r>   -2.3228    1.0000 </r>
       <r>   -2.0677    1.0000 </r>
       <r>   -2.0677    1.0000 </r>
       <r>   -0.7087    1.0000 </r>
       <r>   -0.7087    1.0000 </r>
       <r>   -0.5791    1.0000 </r>
       <r>   -0.5791    1.0000 </r>
       <r>   -0.5302    1.0000 </r>
       <r>   -0.5302    1.0000 </r>
       <r>    1.9184    0.0000 </r>
       <r>    1.9184    0.0000 </r>
       <r>    2.2360    0.0000 </r>
       <r>    2.2360    0.0000 </r>
       <r>    2.4064    0.0000 </r>
       <r>    2.4064    0.0000 </r>
       <r>    3.3306    0.0000 </r>
       <r>    3.3307    0.0000 </r>
       <r>    3.5538    0.0000 </r>
       <r>    3.5569    0.0000 </r>
      </set>
      <set comment="kpoint 17">
       <r>  -13.4799    1.0000 </r>
       <r>  -13.4799    1.0000 </r>
       <r>  -13.3765    1.0000 </r>
       <r>  -13.3765    1.0000 </r>
       <r>  -13.2571    1.0000 </r>
       <r>  -13.2571    1.0000 </r>
       <r>   -8.6024    1.0000 </r>
       <r>   -8.6024    1.0000 </r>
       <r>   -8.2199    1.0000 </r>
       <r>   -8.2199    1.0000 </r>
       <r>   -7.9565    1.0000 </r>
       <r>   -7.9565    1.0000 </r>
       <r>   -3.8491    1.0000 </r>
       <r>   -3.8491    1.0000 </r>
       <r>   -3.7903    1.0000 </r>
       <r>   -3.7903    1.0000 </r>
       <r>   -3.6944    1.0000 </r>
       <r>   -3.6944    1.0000 </r>
       <r>   -3.5107    1.0000 </r>
       <r>   -3.5107    1.0000 </r>
       <r>   -2.7764    1.0000 </r>
       <r>   -2.7764    1.0000 </r>
       <r>   -2.0332    1.0000 </r>
       <r>   -2.0332    1.0000 </r>
       <r>   -0.6080    1.0000 </r>
       <r>   -0.6080    1.0000 </r>
       <r>   -0.4387    1.0000 </r>
       <r>   -0.4387    1.0000 </r>
       <r>   -0.4113    1.0000 </r>
       <r>   -0.4113    1.0000 </r>
       <r>    2.6317    0.0000 </r>
       <r>    2.6317    0.0000 </r>
       <r>    2.8258    0.0000 </r>
       <r>    2.8258    0.0000 </r>
       <r>    2.9049    0.0000 </r>
       <r>    2.9049    0.0000 </r>
       <r>    3.1527    0.0000 </r>
       <r>    3.1527    0.0000 </r>
       <r>    3.7901    0.0000 </r>
       <r>    3.7901    0.0000 </r>
      </set>
      <set comment="kpoint 18">
       <r>  -12.9786    1.0000 </r>
       <r>  -12.9786    1.0000 </r>
       <r>  -12.8711    1.0000 </r>
       <r>  -12.8711    1.0000 </r>
       <r>  -12.7563    1.0000 </r>
       <r>  -12.7563    1.0000 </r>
       <r>   -8.5215    1.0000 </r>
       <r>   -8.5215    1.0000 </r>
       <r>   -8.1978    1.0000 </r>
       <r>   -8.1978    1.0000 </r>
       <r>   -8.0117    1.0000 </r>
       <r>   -8.0117    1.0000 </r>
       <r>   -5.3906    1.0000 </r>
       <r>   -5.3906    1.0000 </r>
       <r>   -5.2606    1.0000 </r>
       <r>   -5.2606    1.0000 </r>
       <r>   -5.1552    1.0000 </r>
       <r>   -5.1552    1.0000 </r>
       <r>   -3.3517    1.0000 </r>
       <r>   -3.3517    1.0000 </r>
       <r>   -2.7452    1.0000 </r>
       <r>   -2.7452    1.0000 </r>
       <r>   -2.4605    1.0000 </r>
       <r>   -2.4605    1.0000 </r>
       <r>   -1.2860    1.0000 </r>
       <r>   -1.2860    1.0000 </r>
       <r>   -1.1819    1.0000 </r>
       <r>   -1.1819    1.0000 </r>
       <r>   -0.7652    1.0000 </r>
       <r>   -0.7652    1.0000 </r>
       <r>    2.8659    0.0000 </r>
       <r>    2.8659    0.0000 </r>
       <r>    3.2894    0.0000 </r>
       <r>    3.2894    0.0000 </r>
       <r>    3.4104    0.0000 </r>
       <r>    3.4104    0.0000 </r>
       <r>    3.8618    0.0000 </r>
       <r>    3.8637    0.0000 </r>
       <r>    3.9735    0.0000 </r>
       <r>    4.0616    0.0000 </r>
      </set>
      <set comment="kpoint 19">
       <r>  -12.2337    1.0000 </r>
       <r>  -12.2337    1.0000 </r>
       <r>  -12.1111    1.0000 </r>
       <r>  -12.1111    1.0000 </r>
       <r>  -12.0135    1.0000 </r>
       <r>  -12.0135    1.0000 </r>
       <r>   -9.0619    1.0000 </r>
       <r>   -9.0619    1.0000 </r>
       <r>   -8.8667    1.0000 </r>
       <r>   -8.8667    1.0000 </r>
       <r>   -8.7851    1.0000 </r>
       <r>   -8.7851    1.0000 </r>
       <r>   -5.7799    1.0000 </r>
       <r>   -5.7799    1.0000 </r>
       <r>   -5.5194    1.0000 </r>
       <r>   -5.5194    1.0000 </r>
       <r>   -5.3356    1.0000 </r>
       <r>   -5.3356    1.0000 </r>
       <r>   -3.7576    1.0000 </r>
       <r>   -3.7576    1.0000 </r>
       <r>   -3.5336    1.0000 </r>
       <r>   -3.5336    1.0000 </r>
       <r>   -3.4166    1.0000 </r>
       <r>   -3.4166    1.0000 </r>
       <r>   -2.0371    1.0000 </r>
       <r>   -2.0371    1.0000 </r>
       <r>   -1.3005    1.0000 </r>
       <r>   -1.3005    1.0000 </r>
       <r>   -0.4772    1.0000 </r>
       <r>   -0.4772    1.0000 </r>
       <r>    2.6753    0.0000 </r>
       <r>    2.6753    0.0000 </r>
       <r>    3.0594    0.0000 </r>
       <r>    3.0594    0.0000 </r>
       <r>    3.1754    0.0000 </r>
       <r>    3.1754    0.0000 </r>
       <r>    4.1629    0.0000 </r>
       <r>    4.1743    0.0000 </r>
       <r>    4.2131    0.0000 </r>
       <r>    4.2673    0.0000 </r>
      </set>
      <set comment="kpoint 20">
       <r>  -11.7119    1.0000 </r>
       <r>  -11.7119    1.0000 </r>
       <r>  -11.5468    1.0000 </r>
       <r>  -11.5468    1.0000 </r>
       <r>  -11.5074    1.0000 </r>
       <r>  -11.5074    1.0000 </r>
       <r>   -9.6875    1.0000 </r>
       <r>   -9.6875    1.0000 </r>
       <r>   -9.4993    1.0000 </r>
       <r>   -9.4993    1.0000 </r>
       <r>   -9.4695    1.0000 </r>
       <r>   -9.4695    1.0000 </r>
       <r>   -5.1098    1.0000 </r>
       <r>   -5.1098    1.0000 </r>
       <r>   -5.0234    1.0000 </r>
       <r>   -5.0234    1.0000 </r>
       <r>   -4.6994    1.0000 </r>
       <r>   -4.6994    1.0000 </r>
       <r>   -4.6819    1.0000 </r>
       <r>   -4.6819    1.0000 </r>
       <r>   -4.4775    1.0000 </r>
       <r>   -4.4775    1.0000 </r>
       <r>   -4.3636    1.0000 </r>
       <r>   -4.3636    1.0000 </r>
       <r>   -2.0071    1.0000 </r>
       <r>   -2.0071    1.0000 </r>
       <r>   -1.1170    1.0000 </r>
       <r>   -1.1170    1.0000 </r>
       <r>   -0.2429    1.0000 </r>
       <r>   -0.2429    1.0000 </r>
       <r>    2.1431    0.0000 </r>
       <r>    2.1431    0.0000 </r>
       <r>    2.7111    0.0000 </r>
       <r>    2.7111    0.0000 </r>
       <r>    2.9911    0.0000 </r>
       <r>    2.9911    0.0000 </r>
       <r>    4.6855    0.0000 </r>
       <r>    4.6907    0.0000 </r>
       <r>    4.8375    0.0000 </r>
       <r>    4.8528    0.0000 </r>
      </set>
     </set>
    </set>
   </array>
  </eigenvalues>
  <separator name="orbital magnetization" >
   <v name="MAGDIPOLOUT">      0.00000000      0.00000000      0.00000000</v>
  </separator>
  <dos>
   <i name="efermi">      1.04887765 </i>
   <total>
    <array>
     <dimension dim="1">gridpoints</dimension>
     <dimension dim="2">spin</dimension>
     <field>energy</field>
     <field>total</field>
     <field>integrated</field>
     <set>
      <set comment="spin 1">
       <r>   -15.9391     0.0000     0.0000 </r>
       <r>   -15.9282     0.0000     0.0000 </r>
       <r>   -15.9173     0.0000     0.0000 </r>
       <r>   -15.9064     0.0000     0.0000 </r>
       <r>   -15.8955     0.0000     0.0000 </r>
       <r>   -15.8846     0.0000     0.0000 </r>
       <r>   -15.8737     0.0000     0.0000 </r>
       <r>   -15.8628     0.0000     0.0000 </r>
       <r>   -15.8519     0.0000     0.0000 </r>
       <r>   -15.8411     0.0000     0.0000 </r>
       <r>   -15.8302     0.0000     0.0000 </r>
       <r>   -15.8193     0.0000     0.0000 </r>
       <r>   -15.8084     0.0000     0.0000 </r>
       <r>   -15.7975     0.0000     0.0000 </r>
       <r>   -15.7866     0.0000     0.0000 </r>
       <r>   -15.7757     0.0000     0.0000 </r>
       <r>   -15.7648     0.0000     0.0000 </r>
       <r>   -15.7539     0.0000     0.0000 </r>
       <r>   -15.7430     0.0000     0.0000 </r>
       <r>   -15.7321     0.0000     0.0000 </r>
       <r>   -15.7212     0.0000     0.0000 </r>
       <r>   -15.7103     0.0000     0.0000 </r>
       <r>   -15.6994     0.0000     0.0000 </r>
       <r>   -15.6885     0.0000     0.0000 </r>
       <r>   -15.6776     0.0000     0.0000 </r>
       <r>   -15.6667     0.0000     0.0000 </r>
       <r>   -15.6558     0.0000     0.0000 </r>
       <r>   -15.6449     0.0000     0.0000 </r>
       <r>   -15.6340     0.0000     0.0000 </r>
       <r>   -15.6231     0.0000     0.0000 </r>
       <r>   -15.6122     0.0000     0.0000 </r>
       <r>   -15.6013     0.0000     0.0000 </r>
       <r>   -15.5904     0.0000     0.0000 </r>
       <r>   -15.5795     0.0000     0.0000 </r>
       <r>   -15.5686     0.0000     0.0000 </r>
       <r>   -15.5577     0.0000     0.0000 </r>
       <r>   -15.5468     0.0000     0.0000 </r>
       <r>   -15.5359     0.0000     0.0000 </r>
       <r>   -15.5251     0.0000     0.0000 </r>
       <r>   -15.5142     0.0000     0.0000 </r>
       <r>   -15.5033     0.0000     0.0000 </r>
       <r>   -15.4924     0.0000     0.0000 </r>
       <r>   -15.4815     0.0000     0.0000 </r>
       <r>   -15.4706     0.0000     0.0000 </r>
       <r>   -15.4597     0.0000     0.0000 </r>
       <r>   -15.4488     0.0000     0.0000 </r>
       <r>   -15.4379     0.0000     0.0000 </r>
       <r>   -15.4270     0.0000     0.0000 </r>
       <r>   -15.4161     0.0000     0.0000 </r>
       <r>   -15.4052     0.0000     0.0000 </r>
       <r>   -15.3943     0.0000     0.0000 </r>
       <r>   -15.3834     0.0000     0.0000 </r>
       <r>   -15.3725     0.0000     0.0000 </r>
       <r>   -15.3616     0.0000     0.0000 </r>
       <r>   -15.3507     0.0000     0.0000 </r>
       <r>   -15.3398     0.0000     0.0000 </r>
       <r>   -15.3289     0.0000     0.0000 </r>
       <r>   -15.3180     0.0000     0.0000 </r>
       <r>   -15.3071     0.0000     0.0000 </r>
       <r>   -15.2962     0.0000     0.0000 </r>
       <r>   -15.2853     0.0000     0.0000 </r>
       <r>   -15.2744     0.0000     0.0000 </r>
       <r>   -15.2635     0.0000     0.0000 </r>
       <r>   -15.2526     0.0000     0.0000 </r>
       <r>   -15.2417     0.0000     0.0000 </r>
       <r>   -15.2308     0.0000     0.0000 </r>
       <r>   -15.2200     0.0000     0.0000 </r>
       <r>   -15.2091     0.0000     0.0000 </r>
       <r>   -15.1982     0.0000     0.0000 </r>
       <r>   -15.1873     0.0000     0.0000 </r>
       <r>   -15.1764     0.0000     0.0000 </r>
       <r>   -15.1655     0.0000     0.0000 </r>
       <r>   -15.1546     0.0000     0.0000 </r>
       <r>   -15.1437     0.0000     0.0000 </r>
       <r>   -15.1328     0.0000     0.0000 </r>
       <r>   -15.1219     0.0000     0.0000 </r>
       <r>   -15.1110     0.0000     0.0000 </r>
       <r>   -15.1001     0.0000     0.0000 </r>
       <r>   -15.0892     0.0000     0.0000 </r>
       <r>   -15.0783     0.0000     0.0000 </r>
       <r>   -15.0674     0.0000     0.0000 </r>
       <r>   -15.0565     0.0000     0.0000 </r>
       <r>   -15.0456     0.0000     0.0000 </r>
       <r>   -15.0347     0.0000     0.0000 </r>
       <r>   -15.0238     0.0000     0.0000 </r>
       <r>   -15.0129     0.0000     0.0000 </r>
       <r>   -15.0020     0.0000     0.0000 </r>
       <r>   -14.9911     0.0000     0.0000 </r>
       <r>   -14.9802     0.0000     0.0000 </r>
       <r>   -14.9693     0.0078     0.0001 </r>
       <r>   -14.9584     0.3425     0.0038 </r>
       <r>   -14.9475     1.8798     0.0243 </r>
       <r>   -14.9366     1.4409     0.0400 </r>
       <r>   -14.9257     0.1509     0.0416 </r>
       <r>   -14.9149     0.0019     0.0417 </r>
       <r>   -14.9040     0.0000     0.0417 </r>
       <r>   -14.8931     0.0000     0.0417 </r>
       <r>   -14.8822     0.0000     0.0417 </r>
       <r>   -14.8713     0.0000     0.0417 </r>
       <r>   -14.8604     0.0000     0.0417 </r>
       <r>   -14.8495     0.0000     0.0417 </r>
       <r>   -14.8386     0.0000     0.0417 </r>
       <r>   -14.8277     0.0000     0.0417 </r>
       <r>   -14.8168     0.0016     0.0417 </r>
       <r>   -14.8059     0.1800     0.0436 </r>
       <r>   -14.7950     2.3401     0.0691 </r>
       <r>   -14.7841     4.1852     0.1147 </r>
       <r>   -14.7732     3.1772     0.1494 </r>
       <r>   -14.7623     6.4275     0.2194 </r>
       <r>   -14.7514     2.6608     0.2484 </r>
       <r>   -14.7405     0.1460     0.2500 </r>
       <r>   -14.7296     0.0117     0.2501 </r>
       <r>   -14.7187     0.4092     0.2546 </r>
       <r>   -14.7078     1.9625     0.2760 </r>
       <r>   -14.6969     1.3197     0.2903 </r>
       <r>   -14.6860     0.1204     0.2917 </r>
       <r>   -14.6751     0.0013     0.2917 </r>
       <r>   -14.6642     0.0000     0.2917 </r>
       <r>   -14.6533     0.0000     0.2917 </r>
       <r>   -14.6424     0.0002     0.2917 </r>
       <r>   -14.6315     0.0596     0.2923 </r>
       <r>   -14.6206     2.3171     0.3176 </r>
       <r>   -14.6097    11.5513     0.4434 </r>
       <r>   -14.5989     8.4348     0.5353 </r>
       <r>   -14.5880     3.4111     0.5725 </r>
       <r>   -14.5771     3.9871     0.6160 </r>
       <r>   -14.5662     1.8396     0.6360 </r>
       <r>   -14.5553     4.1091     0.6808 </r>
       <r>   -14.5444     2.4487     0.7075 </r>
       <r>   -14.5335     1.9963     0.7292 </r>
       <r>   -14.5226     4.2598     0.7756 </r>
       <r>   -14.5117     1.4107     0.7910 </r>
       <r>   -14.5008     0.0607     0.7917 </r>
       <r>   -14.4899     0.0003     0.7917 </r>
       <r>   -14.4790     0.0000     0.7917 </r>
       <r>   -14.4681     0.0000     0.7917 </r>
       <r>   -14.4572     0.0032     0.7917 </r>
       <r>   -14.4463     0.3543     0.7956 </r>
       <r>   -14.4354     4.6476     0.8462 </r>
       <r>   -14.4245     8.1933     0.9355 </r>
       <r>   -14.4136     2.0326     0.9576 </r>
       <r>   -14.4027     0.0682     0.9584 </r>
       <r>   -14.3918     0.4055     0.9628 </r>
       <r>   -14.3809     4.9189     1.0164 </r>
       <r>   -14.3700     8.0581     1.1042 </r>
       <r>   -14.3591     1.8630     1.1245 </r>
       <r>   -14.3482     0.5233     1.1302 </r>
       <r>   -14.3373     3.3653     1.1669 </r>
       <r>   -14.3264     3.3394     1.2033 </r>
       <r>   -14.3155     0.4582     1.2082 </r>
       <r>   -14.3046     0.0077     1.2083 </r>
       <r>   -14.2938     0.0000     1.2083 </r>
       <r>   -14.2829     0.0000     1.2083 </r>
       <r>   -14.2720     0.0000     1.2083 </r>
       <r>   -14.2611     0.0000     1.2083 </r>
       <r>   -14.2502     0.0037     1.2084 </r>
       <r>   -14.2393     0.2994     1.2116 </r>
       <r>   -14.2284     2.8729     1.2429 </r>
       <r>   -14.2175     3.7662     1.2840 </r>
       <r>   -14.2066     0.6897     1.2915 </r>
       <r>   -14.1957     0.0161     1.2917 </r>
       <r>   -14.1848     0.0732     1.2925 </r>
       <r>   -14.1739     1.8991     1.3132 </r>
       <r>   -14.1630     9.1179     1.4125 </r>
       <r>   -14.1521     9.8049     1.5194 </r>
       <r>   -14.1412     2.0615     1.5418 </r>
       <r>   -14.1303     1.5782     1.5590 </r>
       <r>   -14.1194     4.2721     1.6056 </r>
       <r>   -14.1085     1.6949     1.6240 </r>
       <r>   -14.0976     0.1005     1.6251 </r>
       <r>   -14.0867     0.7960     1.6338 </r>
       <r>   -14.0758     6.3690     1.7032 </r>
       <r>   -14.0649     7.0537     1.7801 </r>
       <r>   -14.0540     2.0635     1.8025 </r>
       <r>   -14.0431     4.0969     1.8472 </r>
       <r>   -14.0322     2.3660     1.8730 </r>
       <r>   -14.0213     0.1850     1.8750 </r>
       <r>   -14.0104     0.0620     1.8757 </r>
       <r>   -13.9995     2.3593     1.9014 </r>
       <r>   -13.9887    11.6500     2.0283 </r>
       <r>   -13.9778     8.0960     2.1165 </r>
       <r>   -13.9669     0.8163     2.1254 </r>
       <r>   -13.9560     1.7390     2.1444 </r>
       <r>   -13.9451     7.9454     2.2310 </r>
       <r>   -13.9342     5.1207     2.2867 </r>
       <r>   -13.9233     0.4484     2.2916 </r>
       <r>   -13.9124     0.2383     2.2942 </r>
       <r>   -13.9015     3.8629     2.3363 </r>
       <r>   -13.8906     8.4703     2.4286 </r>
       <r>   -13.8797     2.6215     2.4572 </r>
       <r>   -13.8688     0.1081     2.4584 </r>
       <r>   -13.8579     0.3515     2.4622 </r>
       <r>   -13.8470     4.6291     2.5126 </r>
       <r>   -13.8361     8.2018     2.6020 </r>
       <r>   -13.8252     2.0452     2.6243 </r>
       <r>   -13.8143     0.0650     2.6250 </r>
       <r>   -13.8034     0.0002     2.6250 </r>
       <r>   -13.7925     0.0000     2.6250 </r>
       <r>   -13.7816     0.0000     2.6250 </r>
       <r>   -13.7707     0.0000     2.6250 </r>
       <r>   -13.7598     0.0000     2.6250 </r>
       <r>   -13.7489     0.0000     2.6250 </r>
       <r>   -13.7380     0.0000     2.6250 </r>
       <r>   -13.7271     0.0000     2.6250 </r>
       <r>   -13.7162     0.0000     2.6250 </r>
       <r>   -13.7053     0.0000     2.6250 </r>
       <r>   -13.6944     0.0000     2.6250 </r>
       <r>   -13.6835     0.0000     2.6250 </r>
       <r>   -13.6727     0.0157     2.6252 </r>
       <r>   -13.6618     0.6944     2.6327 </r>
       <r>   -13.6509     4.2599     2.6792 </r>
       <r>   -13.6400     8.2097     2.7686 </r>
       <r>   -13.6291     8.1142     2.8570 </r>
       <r>   -13.6182     1.6077     2.8745 </r>
       <r>   -13.6073     0.0414     2.8750 </r>
       <r>   -13.5964     0.0001     2.8750 </r>
       <r>   -13.5855     0.0000     2.8750 </r>
       <r>   -13.5746     0.0019     2.8750 </r>
       <r>   -13.5637     0.1950     2.8771 </r>
       <r>   -13.5528     2.4203     2.9035 </r>
       <r>   -13.5419     4.0496     2.9476 </r>
       <r>   -13.5310     0.9525     2.9580 </r>
       <r>   -13.5201     0.0284     2.9583 </r>
       <r>   -13.5092     0.0004     2.9583 </r>
       <r>   -13.4983     0.0707     2.9591 </r>
       <r>   -13.4874     2.2018     2.9831 </r>
       <r>   -13.4765    10.3452     3.0958 </r>
       <r>   -13.4656    12.7291     3.2345 </r>
       <r>   -13.4547     4.8991     3.2879 </r>
       <r>   -13.4438     0.5773     3.2942 </r>
       <r>   -13.4329     4.4576     3.3428 </r>
       <r>   -13.4220    12.4791     3.4788 </r>
       <r>   -13.4111     5.4330     3.5380 </r>
       <r>   -13.4002     0.3443     3.5417 </r>
       <r>   -13.3893     0.5260     3.5474 </r>
       <r>   -13.3784     5.4558     3.6069 </r>
       <r>   -13.3676     7.7502     3.6913 </r>
       <r>   -13.3567     2.1861     3.7152 </r>
       <r>   -13.3458     3.7463     3.7560 </r>
       <r>   -13.3349     2.9499     3.7881 </r>
       <r>   -13.3240     0.3212     3.7916 </r>
       <r>   -13.3131     0.0042     3.7917 </r>
       <r>   -13.3022     0.0000     3.7917 </r>
       <r>   -13.2913     0.0000     3.7917 </r>
       <r>   -13.2804     0.0075     3.7917 </r>
       <r>   -13.2695     0.5982     3.7983 </r>
       <r>   -13.2586     5.7440     3.8609 </r>
       <r>   -13.2477     7.5338     3.9429 </r>
       <r>   -13.2368     1.3807     3.9580 </r>
       <r>   -13.2259     0.1067     3.9592 </r>
       <r>   -13.2150     2.2077     3.9832 </r>
       <r>   -13.2041     8.3007     4.0737 </r>
       <r>   -13.1932     4.3987     4.1216 </r>
       <r>   -13.1823     0.4683     4.1267 </r>
       <r>   -13.1714     2.2046     4.1507 </r>
       <r>   -13.1605     4.1490     4.1959 </r>
       <r>   -13.1496     1.1014     4.2079 </r>
       <r>   -13.1387     0.0388     4.2083 </r>
       <r>   -13.1278     0.1597     4.2101 </r>
       <r>   -13.1169     2.2207     4.2343 </r>
       <r>   -13.1060     4.1415     4.2794 </r>
       <r>   -13.0951     1.0880     4.2913 </r>
       <r>   -13.0842     0.0365     4.2917 </r>
       <r>   -13.0733     0.0001     4.2917 </r>
       <r>   -13.0624     0.0001     4.2917 </r>
       <r>   -13.0516     0.0252     4.2919 </r>
       <r>   -13.0407     1.2166     4.3052 </r>
       <r>   -13.0298     7.2809     4.3845 </r>
       <r>   -13.0189     6.0690     4.4507 </r>
       <r>   -13.0080     0.6946     4.4582 </r>
       <r>   -12.9971     0.1525     4.4599 </r>
       <r>   -12.9862     4.2985     4.5067 </r>
       <r>   -12.9753    16.5331     4.6869 </r>
       <r>   -12.9644     8.9596     4.7845 </r>
       <r>   -12.9535     0.7087     4.7922 </r>
       <r>   -12.9426     1.3802     4.8073 </r>
       <r>   -12.9317     4.2511     4.8536 </r>
       <r>   -12.9208     1.8562     4.8738 </r>
       <r>   -12.9099     0.1072     4.8750 </r>
       <r>   -12.8990     0.0013     4.8750 </r>
       <r>   -12.8881     0.1216     4.8763 </r>
       <r>   -12.8772     2.8231     4.9071 </r>
       <r>   -12.8663     8.5166     4.9999 </r>
       <r>   -12.8554     3.6281     5.0394 </r>
       <r>   -12.8445     0.2041     5.0417 </r>
       <r>   -12.8336     0.0134     5.0418 </r>
       <r>   -12.8227     0.7936     5.0504 </r>
       <r>   -12.8118     6.3637     5.1198 </r>
       <r>   -12.8009     7.0572     5.1967 </r>
       <r>   -12.7900     2.3767     5.2226 </r>
       <r>   -12.7791     7.5415     5.3048 </r>
       <r>   -12.7682     9.8859     5.4125 </r>
       <r>   -12.7573    15.2726     5.5789 </r>
       <r>   -12.7465    10.4728     5.6930 </r>
       <r>   -12.7356     1.3794     5.7080 </r>
       <r>   -12.7247     0.0264     5.7083 </r>
       <r>   -12.7138     0.0001     5.7083 </r>
       <r>   -12.7029     0.0000     5.7083 </r>
       <r>   -12.6920     0.0000     5.7083 </r>
       <r>   -12.6811     0.0000     5.7083 </r>
       <r>   -12.6702     0.0006     5.7083 </r>
       <r>   -12.6593     0.1276     5.7097 </r>
       <r>   -12.6484     2.8915     5.7412 </r>
       <r>   -12.6375     8.5282     5.8342 </r>
       <r>   -12.6266     3.7109     5.8746 </r>
       <r>   -12.6157     4.8531     5.9275 </r>
       <r>   -12.6048    19.6349     6.1414 </r>
       <r>   -12.5939    17.2076     6.3289 </r>
       <r>   -12.5830     4.0410     6.3730 </r>
       <r>   -12.5721     0.3333     6.3766 </r>
       <r>   -12.5612     2.1420     6.3999 </r>
       <r>   -12.5503     4.1723     6.4454 </r>
       <r>   -12.5394     1.1461     6.4579 </r>
       <r>   -12.5285     0.0404     6.4583 </r>
       <r>   -12.5176     0.0002     6.4583 </r>
       <r>   -12.5067     0.0000     6.4583 </r>
       <r>   -12.4958     0.0103     6.4584 </r>
       <r>   -12.4849     0.4006     6.4628 </r>
       <r>   -12.4740     1.9532     6.4841 </r>
       <r>   -12.4631     1.3345     6.4986 </r>
       <r>   -12.4522     0.1238     6.5000 </r>
       <r>   -12.4414     0.0014     6.5000 </r>
       <r>   -12.4305     0.0000     6.5000 </r>
       <r>   -12.4196     0.0000     6.5000 </r>
       <r>   -12.4087     0.0000     6.5000 </r>
       <r>   -12.3978     0.0053     6.5001 </r>
       <r>   -12.3869     0.4878     6.5054 </r>
       <r>   -12.3760     5.3053     6.5632 </r>
       <r>   -12.3651     7.8334     6.6485 </r>
       <r>   -12.3542     1.6212     6.6662 </r>
       <r>   -12.3433     0.0422     6.6667 </r>
       <r>   -12.3324     0.0002     6.6667 </r>
       <r>   -12.3215     0.0234     6.6669 </r>
       <r>   -12.3106     0.8617     6.6763 </r>
       <r>   -12.2997     4.3018     6.7232 </r>
       <r>   -12.2888     5.5805     6.7840 </r>
       <r>   -12.2779     4.3726     6.8316 </r>
       <r>   -12.2670     5.8952     6.8959 </r>
       <r>   -12.2561     7.8813     6.9818 </r>
       <r>   -12.2452     2.4194     7.0081 </r>
       <r>   -12.2343     6.3601     7.0774 </r>
       <r>   -12.2234     7.1323     7.1551 </r>
       <r>   -12.2125     2.5282     7.1827 </r>
       <r>   -12.2016     4.2825     7.2294 </r>
       <r>   -12.1907     1.8427     7.2494 </r>
       <r>   -12.1798     1.4252     7.2650 </r>
       <r>   -12.1689     5.3470     7.3232 </r>
       <r>   -12.1580     4.0774     7.3677 </r>
       <r>   -12.1471     0.6573     7.3748 </r>
       <r>   -12.1362     0.2664     7.3777 </r>
       <r>   -12.1254     6.6319     7.4500 </r>
       <r>   -12.1145    28.2029     7.7573 </r>
       <r>   -12.1036    22.5653     8.0032 </r>
       <r>   -12.0927     3.6041     8.0424 </r>
       <r>   -12.0818     3.2843     8.0782 </r>
       <r>   -12.0709     8.5503     8.1714 </r>
       <r>   -12.0600     3.2285     8.2066 </r>
       <r>   -12.0491     0.1704     8.2084 </r>
       <r>   -12.0382     0.7416     8.2165 </r>
       <r>   -12.0273     6.6000     8.2884 </r>
       <r>   -12.0164    12.4214     8.4238 </r>
       <r>   -12.0055    11.9359     8.5538 </r>
       <r>   -11.9946     7.1341     8.6316 </r>
       <r>   -11.9837     4.2353     8.6777 </r>
       <r>   -11.9728     4.4987     8.7268 </r>
       <r>   -11.9619     2.0561     8.7492 </r>
       <r>   -11.9510     1.4040     8.7645 </r>
       <r>   -11.9401     4.2260     8.8105 </r>
       <r>   -11.9292     1.9726     8.8320 </r>
       <r>   -11.9183     0.2581     8.8348 </r>
       <r>   -11.9074     2.9834     8.8673 </r>
       <r>   -11.8965     8.5387     8.9604 </r>
       <r>   -11.8856     3.4528     8.9980 </r>
       <r>   -11.8747     0.1958     9.0001 </r>
       <r>   -11.8638     1.0184     9.0112 </r>
       <r>   -11.8529    10.6920     9.1277 </r>
       <r>   -11.8420    17.5566     9.3190 </r>
       <r>   -11.8311    11.7553     9.4471 </r>
       <r>   -11.8203     7.6731     9.5307 </r>
       <r>   -11.8094     4.1239     9.5757 </r>
       <r>   -11.7985     0.6884     9.5832 </r>
       <r>   -11.7876     0.0156     9.5833 </r>
       <r>   -11.7767     0.0000     9.5833 </r>
       <r>   -11.7658     0.0000     9.5833 </r>
       <r>   -11.7549     0.0001     9.5833 </r>
       <r>   -11.7440     0.0294     9.5837 </r>
       <r>   -11.7331     0.9801     9.5943 </r>
       <r>   -11.7222     4.6082     9.6445 </r>
       <r>   -11.7113     5.9204     9.7091 </r>
       <r>   -11.7004     3.3975     9.7461 </r>
       <r>   -11.6895     1.9592     9.7674 </r>
       <r>   -11.6786     7.7769     9.8522 </r>
       <r>   -11.6677     5.4028     9.9110 </r>
[...]
        <r>  0.0274  0.0038  0.0139  0.0035  0.0000  0.0000  0.0000  0.0000  0.0000 </r>
        <r>  0.0115  0.0016  0.0058  0.0085  0.0000  0.0000  0.0000  0.0000  0.0000 </r>
        <r>  0.0274  0.0038  0.0139  0.0035  0.0000  0.0000  0.0000  0.0000  0.0000 </r>
        <r>  0.0115  0.0016  0.0058  0.0085  0.0000  0.0000  0.0000  0.0000  0.0000 </r>
        <r>  0.0166  0.0093  0.0002  0.0000  0.0000  0.0000  0.0000  0.0000  0.0000 </r>
        <r>  0.0070  0.0039  0.0001  0.0000  0.0000  0.0000  0.0000  0.0000  0.0000 </r>
        <r>  0.0189  0.0000  0.0321  0.0098  0.0000  0.0000  0.0000  0.0000  0.0000 </r>
        <r>  0.0079  0.0000  0.0135  0.0235  0.0000  0.0000  0.0000  0.0000  0.0000 </r>
       </set>
       <set comment="band 25">
        <r>  0.0109  0.0217  0.0100  0.0022  0.0000  0.0000  0.0000  0.0000  0.0000 </r>
        <r>  0.0031  0.0062  0.0029  0.0077  0.0000  0.0000  0.0000  0.0000  0.0000 </r>
        <r>  0.0000  0.0257  0.0029  0.0009  0.0000  0.0000  0.0000  0.0000  0.0000 </r>
        <r>  0.0000  0.0074  0.0008  0.0032  0.0000  0.0000  0.0000  0.0000  0.0000 </r>
        <r>  0.0061  0.0575  0.0117  0.0029  0.0000  0.0000  0.0000  0.0000  0.0000 </r>
        <r>  0.0018  0.0165  0.0034  0.0102  0.0000  0.0000  0.0000  0.0000  0.0000 </r>
        <r>  0.0061  0.0575  0.0117  0.0029  0.0000  0.0000  0.0000  0.0000  0.0000 </r>
        <r>  0.0018  0.0165  0.0034  0.0102  0.0000  0.0000  0.0000  0.0000  0.0000 </r>
        <r>  0.0000  0.0257  0.0029  0.0009  0.0000  0.0000  0.0000  0.0000  0.0000 </r>
        <r>  0.0000  0.0074  0.0008  0.0032  0.0000  0.0000  0.0000  0.0000  0.0000 </r>
        <r>  0.0109  0.0217  0.0100  0.0022  0.0000  0.0000  0.0000  0.0000  0.0000 </r>
        <r>  0.0031  0.0062  0.0029  0.0077  0.0000  0.0000  0.0000  0.0000  0.0000 </r>
       </set>
       <set comment="band 26">
        <r>  0.0031  0.0062  0.0029  0.0077  0.0000  0.0000  0.0000  0.0000  0.0000 </r>
        <r>  0.0109  0.0217  0.0100  0.0022  0.0000  0.0000  0.0000  0.0000  0.0000 </r>
        <r>  0.0000  0.0074  0.0008  0.0032  0.0000  0.0000  0.0000  0.0000  0.0000 </r>
        <r>  0.0000  0.0257  0.0029  0.0009  0.0000  0.0000  0.0000  0.0000  0.0000 </r>
        <r>  0.0018  0.0165  0.0034  0.0102  0.0000  0.0000  0.0000  0.0000  0.0000 </r>
        <r>  0.0061  0.0575  0.0117  0.0029  0.0000  0.0000  0.0000  0.0000  0.0000 </r>
        <r>  0.0018  0.0165  0.0034  0.0102  0.0000  0.0000  0.0000  0.0000  0.0000 </r>
        <r>  0.0061  0.0575  0.0117  0.0029  0.0000  0.0000  0.0000  0.0000  0.0000 </r>
        <r>  0.0000  0.0074  0.0008  0.0032  0.0000  0.0000  0.0000  0.0000  0.0000 </r>
        <r>  0.0000  0.0257  0.0029  0.0009  0.0000  0.0000  0.0000  0.0000  0.0000 </r>
        <r>  0.0031  0.0062  0.0029  0.0077  0.0000  0.0000  0.0000  0.0000  0.0000 </r>
        <r>  0.0109  0.0217  0.0100  0.0022  0.0000  0.0000  0.0000  0.0000  0.0000 </r>
       </set>
       <set comment="band 27">
        <r>  0.0032  0.0216  0.0032  0.0073  0.0000  0.0000  0.0000  0.0000  0.0000 </r>
        <r>  0.0086  0.0584  0.0085  0.0027  0.0000  0.0000  0.0000  0.0000  0.0000 </r>
        <r>  0.0025  0.0210  0.0027  0.0063  0.0000  0.0000  0.0000  0.0000  0.0000 </r>
        <r>  0.0069  0.0566  0.0072  0.0023  0.0000  0.0000  0.0000  0.0000  0.0000 </r>
        <r>  0.0027  0.0003  0.0004  0.0004  0.0000  0.0000  0.0000  0.0000  0.0000 </r>
        <r>  0.0074  0.0009  0.0010  0.0001  0.0000  0.0000  0.0000  0.0000  0.0000 </r>
        <r>  0.0027  0.0003  0.0004  0.0004  0.0000  0.0000  0.0000  0.0000  0.0000 </r>
        <r>  0.0074  0.0009  0.0010  0.0001  0.0000  0.0000  0.0000  0.0000  0.0000 </r>
        <r>  0.0025  0.0210  0.0027  0.0063  0.0000  0.0000  0.0000  0.0000  0.0000 </r>
        <r>  0.0069  0.0566  0.0072  0.0023  0.0000  0.0000  0.0000  0.0000  0.0000 </r>
        <r>  0.0032  0.0216  0.0032  0.0073  0.0000  0.0000  0.0000  0.0000  0.0000 </r>
        <r>  0.0086  0.0584  0.0085  0.0027  0.0000  0.0000  0.0000  0.0000  0.0000 </r>
       </set>
       <set comment="band 28">
        <r>  0.0086  0.0584  0.0085  0.0027  0.0000  0.0000  0.0000  0.0000  0.0000 </r>
        <r>  0.0032  0.0216  0.0032  0.0073  0.0000  0.0000  0.0000  0.0000  0.0000 </r>
        <r>  0.0069  0.0566  0.0072  0.0023  0.0000  0.0000  0.0000  0.0000  0.0000 </r>
        <r>  0.0025  0.0210  0.0027  0.0063  0.0000  0.0000  0.0000  0.0000  0.0000 </r>
        <r>  0.0074  0.0009  0.0010  0.0001  0.0000  0.0000  0.0000  0.0000  0.0000 </r>
        <r>  0.0027  0.0003  0.0004  0.0004  0.0000  0.0000  0.0000  0.0000  0.0000 </r>
        <r>  0.0074  0.0009  0.0010  0.0001  0.0000  0.0000  0.0000  0.0000  0.0000 </r>
        <r>  0.0027  0.0003  0.0004  0.0004  0.0000  0.0000  0.0000  0.0000  0.0000 </r>
        <r>  0.0069  0.0566  0.0072  0.0023  0.0000  0.0000  0.0000  0.0000  0.0000 </r>
        <r>  0.0025  0.0210  0.0027  0.0063  0.0000  0.0000  0.0000  0.0000  0.0000 </r>
        <r>  0.0086  0.0584  0.0085  0.0027  0.0000  0.0000  0.0000  0.0000  0.0000 </r>
        <r>  0.0032  0.0216  0.0032  0.0073  0.0000  0.0000  0.0000  0.0000  0.0000 </r>
       </set>
       <set comment="band 29">
        <r>  0.0003  0.0088  0.0005  0.0030  0.0000  0.0000  0.0000  0.0000  0.0000 </r>
        <r>  0.0018  0.0538  0.0029  0.0005  0.0000  0.0000  0.0000  0.0000  0.0000 </r>
        <r>  0.0027  0.0056  0.0011  0.0052  0.0000  0.0000  0.0000  0.0000  0.0000 </r>
        <r>  0.0165  0.0340  0.0068  0.0009  0.0000  0.0000  0.0000  0.0000  0.0000 </r>
        <r>  0.0020  0.0116  0.0011  0.0056  0.0000  0.0000  0.0000  0.0000  0.0000 </r>
        <r>  0.0122  0.0710  0.0065  0.0009  0.0000  0.0000  0.0000  0.0000  0.0000 </r>
        <r>  0.0020  0.0116  0.0011  0.0056  0.0000  0.0000  0.0000  0.0000  0.0000 </r>
        <r>  0.0122  0.0710  0.0065  0.0009  0.0000  0.0000  0.0000  0.0000  0.0000 </r>
        <r>  0.0027  0.0056  0.0011  0.0052  0.0000  0.0000  0.0000  0.0000  0.0000 </r>
        <r>  0.0165  0.0340  0.0068  0.0009  0.0000  0.0000  0.0000  0.0000  0.0000 </r>
        <r>  0.0003  0.0088  0.0005  0.0030  0.0000  0.0000  0.0000  0.0000  0.0000 </r>
        <r>  0.0018  0.0538  0.0029  0.0005  0.0000  0.0000  0.0000  0.0000  0.0000 </r>
       </set>
       <set comment="band 30">
        <r>  0.0018  0.0538  0.0029  0.0005  0.0000  0.0000  0.0000  0.0000  0.0000 </r>
        <r>  0.0003  0.0088  0.0005  0.0030  0.0000  0.0000  0.0000  0.0000  0.0000 </r>
        <r>  0.0165  0.0340  0.0068  0.0009  0.0000  0.0000  0.0000  0.0000  0.0000 </r>
        <r>  0.0027  0.0056  0.0011  0.0052  0.0000  0.0000  0.0000  0.0000  0.0000 </r>
        <r>  0.0122  0.0710  0.0065  0.0009  0.0000  0.0000  0.0000  0.0000  0.0000 </r>
        <r>  0.0020  0.0116  0.0011  0.0056  0.0000  0.0000  0.0000  0.0000  0.0000 </r>
        <r>  0.0122  0.0710  0.0065  0.0009  0.0000  0.0000  0.0000  0.0000  0.0000 </r>
        <r>  0.0020  0.0116  0.0011  0.0056  0.0000  0.0000  0.0000  0.0000  0.0000 </r>
        <r>  0.0165  0.0340  0.0068  0.0009  0.0000  0.0000  0.0000  0.0000  0.0000 </r>
        <r>  0.0027  0.0056  0.0011  0.0052  0.0000  0.0000  0.0000  0.0000  0.0000 </r>
        <r>  0.0018  0.0538  0.0029  0.0005  0.0000  0.0000  0.0000  0.0000  0.0000 </r>
        <r>  0.0003  0.0088  0.0005  0.0030  0.0000  0.0000  0.0000  0.0000  0.0000 </r>
       </set>
       <set comment="band 31">
        <r>  0.0021  0.0054  0.0017  0.0014  0.0000  0.0000  0.0000  0.0000  0.0000 </r>
        <r>  0.0024  0.0062  0.0020  0.0012  0.0000  0.0000  0.0000  0.0000  0.0000 </r>
        <r>  0.0006  0.0111  0.0001  0.0000  0.0000  0.0000  0.0000  0.0000  0.0000 </r>
        <r>  0.0007  0.0127  0.0001  0.0000  0.0000  0.0000  0.0000  0.0000  0.0000 </r>
        <r>  0.0026  0.0190  0.0006  0.0009  0.0000  0.0000  0.0000  0.0000  0.0000 </r>
        <r>  0.0030  0.0218  0.0007  0.0007  0.0000  0.0000  0.0000  0.0000  0.0000 </r>
        <r>  0.0026  0.0190  0.0006  0.0009  0.0000  0.0000  0.0000  0.0000  0.0000 </r>
        <r>  0.0030  0.0218  0.0007  0.0007  0.0000  0.0000  0.0000  0.0000  0.0000 </r>
        <r>  0.0006  0.0111  0.0001  0.0000  0.0000  0.0000  0.0000  0.0000  0.0000 </r>
        <r>  0.0007  0.0127  0.0001  0.0000  0.0000  0.0000  0.0000  0.0000  0.0000 </r>
        <r>  0.0021  0.0054  0.0017  0.0014  0.0000  0.0000  0.0000  0.0000  0.0000 </r>
        <r>  0.0024  0.0062  0.0020  0.0012  0.0000  0.0000  0.0000  0.0000  0.0000 </r>
       </set>
       <set comment="band 32">
        <r>  0.0024  0.0062  0.0020  0.0012  0.0000  0.0000  0.0000  0.0000  0.0000 </r>
        <r>  0.0021  0.0054  0.0017  0.0014  0.0000  0.0000  0.0000  0.0000  0.0000 </r>
        <r>  0.0007  0.0127  0.0001  0.0000  0.0000  0.0000  0.0000  0.0000  0.0000 </r>
        <r>  0.0006  0.0111  0.0001  0.0000  0.0000  0.0000  0.0000  0.0000  0.0000 </r>
        <r>  0.0030  0.0218  0.0007  0.0007  0.0000  0.0000  0.0000  0.0000  0.0000 </r>
        <r>  0.0026  0.0190  0.0006  0.0009  0.0000  0.0000  0.0000  0.0000  0.0000 </r>
        <r>  0.0030  0.0218  0.0007  0.0007  0.0000  0.0000  0.0000  0.0000  0.0000 </r>
        <r>  0.0026  0.0190  0.0006  0.0009  0.0000  0.0000  0.0000  0.0000  0.0000 </r>
        <r>  0.0007  0.0127  0.0001  0.0000  0.0000  0.0000  0.0000  0.0000  0.0000 </r>
        <r>  0.0006  0.0111  0.0001  0.0000  0.0000  0.0000  0.0000  0.0000  0.0000 </r>
        <r>  0.0024  0.0062  0.0020  0.0012  0.0000  0.0000  0.0000  0.0000  0.0000 </r>
        <r>  0.0021  0.0054  0.0017  0.0014  0.0000  0.0000  0.0000  0.0000  0.0000 </r>
       </set>
       <set comment="band 33">
        <r>  0.0069  0.0254  0.0023  0.0014  0.0000  0.0000  0.0000  0.0000  0.0000 </r>
        <r>  0.0045  0.0163  0.0015  0.0022  0.0000  0.0000  0.0000  0.0000  0.0000 </r>
        <r>  0.0049  0.0323  0.0009  0.0008  0.0000  0.0000  0.0000  0.0000  0.0000 </r>
        <r>  0.0032  0.0208  0.0006  0.0012  0.0000  0.0000  0.0000  0.0000  0.0000 </r>
        <r>  0.0007  0.0017  0.0033  0.0009  0.0000  0.0000  0.0000  0.0000  0.0000 </r>
        <r>  0.0005  0.0011  0.0021  0.0013  0.0000  0.0000  0.0000  0.0000  0.0000 </r>
        <r>  0.0007  0.0017  0.0033  0.0009  0.0000  0.0000  0.0000  0.0000  0.0000 </r>
        <r>  0.0005  0.0011  0.0021  0.0013  0.0000  0.0000  0.0000  0.0000  0.0000 </r>
        <r>  0.0049  0.0323  0.0009  0.0008  0.0000  0.0000  0.0000  0.0000  0.0000 </r>
        <r>  0.0032  0.0208  0.0006  0.0012  0.0000  0.0000  0.0000  0.0000  0.0000 </r>
        <r>  0.0069  0.0254  0.0023  0.0014  0.0000  0.0000  0.0000  0.0000  0.0000 </r>
        <r>  0.0045  0.0163  0.0015  0.0022  0.0000  0.0000  0.0000  0.0000  0.0000 </r>
       </set>
       <set comment="band 34">
        <r>  0.0045  0.0163  0.0015  0.0022  0.0000  0.0000  0.0000  0.0000  0.0000 </r>
        <r>  0.0069  0.0254  0.0023  0.0014  0.0000  0.0000  0.0000  0.0000  0.0000 </r>
        <r>  0.0032  0.0208  0.0006  0.0012  0.0000  0.0000  0.0000  0.0000  0.0000 </r>
        <r>  0.0049  0.0323  0.0009  0.0008  0.0000  0.0000  0.0000  0.0000  0.0000 </r>
        <r>  0.0005  0.0011  0.0021  0.0013  0.0000  0.0000  0.0000  0.0000  0.0000 </r>
        <r>  0.0007  0.0017  0.0033  0.0009  0.0000  0.0000  0.0000  0.0000  0.0000 </r>
        <r>  0.0005  0.0011  0.0021  0.0013  0.0000  0.0000  0.0000  0.0000  0.0000 </r>
        <r>  0.0007  0.0017  0.0033  0.0009  0.0000  0.0000  0.0000  0.0000  0.0000 </r>
        <r>  0.0032  0.0208  0.0006  0.0012  0.0000  0.0000  0.0000  0.0000  0.0000 </r>
        <r>  0.0049  0.0323  0.0009  0.0008  0.0000  0.0000  0.0000  0.0000  0.0000 </r>
        <r>  0.0045  0.0163  0.0015  0.0022  0.0000  0.0000  0.0000  0.0000  0.0000 </r>
        <r>  0.0069  0.0254  0.0023  0.0014  0.0000  0.0000  0.0000  0.0000  0.0000 </r>
       </set>
       <set comment="band 35">
        <r>  0.0077  0.0486  0.0002  0.0000  0.0000  0.0000  0.0000  0.0000  0.0000 </r>
        <r>  0.0002  0.0015  0.0000  0.0008  0.0000  0.0000  0.0000  0.0000  0.0000 </r>
        <r>  0.0158  0.0254  0.0058  0.0002  0.0000  0.0000  0.0000  0.0000  0.0000 </r>
        <r>  0.0005  0.0008  0.0002  0.0050  0.0000  0.0000  0.0000  0.0000  0.0000 </r>
        <r>  0.0174  0.0575  0.0030  0.0001  0.0000  0.0000  0.0000  0.0000  0.0000 </r>
        <r>  0.0005  0.0018  0.0001  0.0043  0.0000  0.0000  0.0000  0.0000  0.0000 </r>
        <r>  0.0174  0.0575  0.0030  0.0001  0.0000  0.0000  0.0000  0.0000  0.0000 </r>
        <r>  0.0005  0.0018  0.0001  0.0043  0.0000  0.0000  0.0000  0.0000  0.0000 </r>
        <r>  0.0158  0.0254  0.0058  0.0002  0.0000  0.0000  0.0000  0.0000  0.0000 </r>
        <r>  0.0005  0.0008  0.0002  0.0050  0.0000  0.0000  0.0000  0.0000  0.0000 </r>
        <r>  0.0077  0.0486  0.0002  0.0000  0.0000  0.0000  0.0000  0.0000  0.0000 </r>
        <r>  0.0002  0.0015  0.0000  0.0008  0.0000  0.0000  0.0000  0.0000  0.0000 </r>
       </set>
       <set comment="band 36">
        <r>  0.0002  0.0015  0.0000  0.0008  0.0000  0.0000  0.0000  0.0000  0.0000 </r>
        <r>  0.0077  0.0486  0.0002  0.0000  0.0000  0.0000  0.0000  0.0000  0.0000 </r>
        <r>  0.0005  0.0008  0.0002  0.0050  0.0000  0.0000  0.0000  0.0000  0.0000 </r>
        <r>  0.0158  0.0254  0.0058  0.0002  0.0000  0.0000  0.0000  0.0000  0.0000 </r>
        <r>  0.0005  0.0018  0.0001  0.0043  0.0000  0.0000  0.0000  0.0000  0.0000 </r>
        <r>  0.0174  0.0575  0.0030  0.0001  0.0000  0.0000  0.0000  0.0000  0.0000 </r>
        <r>  0.0005  0.0018  0.0001  0.0043  0.0000  0.0000  0.0000  0.0000  0.0000 </r>
        <r>  0.0174  0.0575  0.0030  0.0001  0.0000  0.0000  0.0000  0.0000  0.0000 </r>
        <r>  0.0005  0.0008  0.0002  0.0050  0.0000  0.0000  0.0000  0.0000  0.0000 </r>
        <r>  0.0158  0.0254  0.0058  0.0002  0.0000  0.0000  0.0000  0.0000  0.0000 </r>
        <r>  0.0002  0.0015  0.0000  0.0008  0.0000  0.0000  0.0000  0.0000  0.0000 </r>
        <r>  0.0077  0.0486  0.0002  0.0000  0.0000  0.0000  0.0000  0.0000  0.0000 </r>
       </set>
       <set comment="band 37">
        <r>  0.0003  0.0001  0.0043  0.0026  0.0000  0.0000  0.0000  0.0000  0.0000 </r>
        <r>  0.0003  0.0001  0.0048  0.0024  0.0000  0.0000  0.0000  0.0000  0.0000 </r>
        <r>  0.0003  0.0003  0.0059  0.0039  0.0000  0.0000  0.0000  0.0000  0.0000 </r>
        <r>  0.0003  0.0003  0.0065  0.0036  0.0000  0.0000  0.0000  0.0000  0.0000 </r>
        <r>  0.0027  0.0015  0.0636  0.0300  0.0000  0.0000  0.0000  0.0000  0.0000 </r>
        <r>  0.0028  0.0015  0.0642  0.0297  0.0000  0.0000  0.0000  0.0000  0.0000 </r>
        <r>  0.0027  0.0015  0.0637  0.0299  0.0000  0.0000  0.0000  0.0000  0.0000 </r>
        <r>  0.0028  0.0015  0.0641  0.0298  0.0000  0.0000  0.0000  0.0000  0.0000 </r>
        <r>  0.0003  0.0003  0.0060  0.0032  0.0000  0.0000  0.0000  0.0000  0.0000 </r>
        <r>  0.0002  0.0003  0.0052  0.0036  0.0000  0.0000  0.0000  0.0000  0.0000 </r>
        <r>  0.0003  0.0001  0.0044  0.0021  0.0000  0.0000  0.0000  0.0000  0.0000 </r>
        <r>  0.0003  0.0001  0.0038  0.0024  0.0000  0.0000  0.0000  0.0000  0.0000 </r>
       </set>
       <set comment="band 38">
        <r>  0.0003  0.0001  0.0041  0.0022  0.0000  0.0000  0.0000  0.0000  0.0000 </r>
        <r>  0.0003  0.0001  0.0040  0.0023  0.0000  0.0000  0.0000  0.0000  0.0000 </r>
        <r>  0.0003  0.0003  0.0057  0.0034  0.0000  0.0000  0.0000  0.0000  0.0000 </r>
        <r>  0.0003  0.0004  0.0052  0.0034  0.0000  0.0000  0.0000  0.0000  0.0000 </r>
        <r>  0.0027  0.0014  0.0616  0.0329  0.0000  0.0000  0.0000  0.0000  0.0000 </r>
        <r>  0.0030  0.0017  0.0719  0.0289  0.0000  0.0000  0.0000  0.0000  0.0000 </r>
        <r>  0.0027  0.0014  0.0619  0.0322  0.0000  0.0000  0.0000  0.0000  0.0000 </r>
        <r>  0.0031  0.0015  0.0708  0.0290  0.0000  0.0000  0.0000  0.0000  0.0000 </r>
        <r>  0.0003  0.0003  0.0067  0.0002  0.0000  0.0000  0.0000  0.0000  0.0000 </r>
        <r>  0.0000  0.0001  0.0001  0.0039  0.0000  0.0000  0.0000  0.0000  0.0000 </r>
        <r>  0.0003  0.0001  0.0050  0.0001  0.0000  0.0000  0.0000  0.0000  0.0000 </r>
        <r>  0.0000  0.0000  0.0000  0.0027  0.0000  0.0000  0.0000  0.0000  0.0000 </r>
       </set>
       <set comment="band 39">
        <r>  0.0036  0.0024  0.0701  0.0056  0.0000  0.0000  0.0000  0.0000  0.0000 </r>
        <r>  0.0006  0.0004  0.0121  0.0326  0.0000  0.0000  0.0000  0.0000  0.0000 </r>
        <r>  0.0037  0.0025  0.0783  0.0063  0.0000  0.0000  0.0000  0.0000  0.0000 </r>
        <r>  0.0006  0.0004  0.0137  0.0370  0.0000  0.0000  0.0000  0.0000  0.0000 </r>
        <r>  0.0000  0.0001  0.0000  0.0001  0.0000  0.0000  0.0000  0.0000  0.0000 </r>
        <r>  0.0000  0.0000  0.0003  0.0000  0.0000  0.0000  0.0000  0.0000  0.0000 </r>
        <r>  0.0000  0.0001  0.0004  0.0001  0.0000  0.0000  0.0000  0.0000  0.0000 </r>
        <r>  0.0000  0.0000  0.0004  0.0002  0.0000  0.0000  0.0000  0.0000  0.0000 </r>
        <r>  0.0026  0.0021  0.0546  0.0038  0.0000  0.0000  0.0000  0.0000  0.0000 </r>
        <r>  0.0004  0.0003  0.0078  0.0267  0.0000  0.0000  0.0000  0.0000  0.0000 </r>
        <r>  0.0026  0.0018  0.0498  0.0033  0.0000  0.0000  0.0000  0.0000  0.0000 </r>
        <r>  0.0004  0.0003  0.0071  0.0234  0.0000  0.0000  0.0000  0.0000  0.0000 </r>
       </set>
       <set comment="band 40">
        <r>  0.0016  0.0011  0.0386  0.0214  0.0000  0.0000  0.0000  0.0000  0.0000 </r>
        <r>  0.0021  0.0015  0.0469  0.0173  0.0000  0.0000  0.0000  0.0000  0.0000 </r>
        <r>  0.0019  0.0006  0.0475  0.0237  0.0000  0.0000  0.0000  0.0000  0.0000 </r>
        <r>  0.0024  0.0011  0.0556  0.0189  0.0000  0.0000  0.0000  0.0000  0.0000 </r>
        <r>  0.0004  0.0003  0.0104  0.0015  0.0000  0.0000  0.0000  0.0000  0.0000 </r>
        <r>  0.0002  0.0001  0.0048  0.0035  0.0000  0.0000  0.0000  0.0000  0.0000 </r>
        <r>  0.0004  0.0003  0.0105  0.0020  0.0000  0.0000  0.0000  0.0000  0.0000 </r>
        <r>  0.0002  0.0002  0.0057  0.0035  0.0000  0.0000  0.0000  0.0000  0.0000 </r>
        <r>  0.0016  0.0005  0.0392  0.0020  0.0000  0.0000  0.0000  0.0000  0.0000 </r>
        <r>  0.0002  0.0001  0.0056  0.0153  0.0000  0.0000  0.0000  0.0000  0.0000 </r>
        <r>  0.0013  0.0009  0.0316  0.0019  0.0000  0.0000  0.0000  0.0000  0.0000 </r>
        <r>  0.0002  0.0001  0.0043  0.0141  0.0000  0.0000  0.0000  0.0000  0.0000 </r>
       </set>
      </set>
     </set>
    </set>
   </array>
  </projected>
 </calculation>
 <structure name="finalpos" >
  <crystal>
   <varray name="basis" >
    <v>       3.34288600       0.00000000       0.00000000 </v>
    <v>       0.00000000      32.60240900       0.00000000 </v>
    <v>       0.00000000       0.00000000       4.37483100 </v>
   </varray>
   <i name="volume">    476.79592902 </i>
   <varray name="rec_basis" >
    <v>       0.29914272       0.00000000       0.00000000 </v>
    <v>       0.00000000       0.03067258       0.00000000 </v>
    <v>       0.00000000       0.00000000       0.22858026 </v>
   </varray>
  </crystal>
  <varray name="positions" >
   <v>       0.00000000       0.30672600       0.91892400 </v>
   <v>       0.50000000       0.30672600       0.58107600 </v>
   <v>       0.00000000       0.37246700       0.08107600 </v>
   <v>       0.50000000       0.37246700       0.41892400 </v>
   <v>       0.00000000       0.46712900       0.91892400 </v>
   <v>       0.50000000       0.46712900       0.58107600 </v>
   <v>       0.00000000       0.53287100       0.08107600 </v>
   <v>       0.50000000       0.53287100       0.41892400 </v>
   <v>       0.00000000       0.62753300       0.91892400 </v>
   <v>       0.50000000       0.62753300       0.58107600 </v>
   <v>       0.00000000       0.69327400       0.08107600 </v>
   <v>       0.50000000       0.69327400       0.41892400 </v>
  </varray>
 </structure>
</modeling>
