  12  12   1   0
  0.3973299E+02  0.3342886E-09  0.3260241E-08  0.4374831E-09  0.5000000E-15
  1.000000000000000E-004
  CAR 
 Generic Input                           
      5.56017224    -15.83167063 2000      0.93426102      1.00000000
    -15.832  0.0000E+00  0.0000E+00
    -15.821  0.0000E+00  0.0000E+00
    -15.810  0.0000E+00  0.0000E+00
    -15.800  0.0000E+00  0.0000E+00
    -15.789  0.0000E+00  0.0000E+00
    -15.778  0.0000E+00  0.0000E+00
    -15.767  0.0000E+00  0.0000E+00
    -15.757  0.0000E+00  0.0000E+00
    -15.746  0.0000E+00  0.0000E+00
    -15.735  0.0000E+00  0.0000E+00
    -15.725  0.0000E+00  0.0000E+00
    -15.714  0.0000E+00  0.0000E+00
    -15.703  0.0000E+00  0.0000E+00
    -15.693  0.0000E+00  0.0000E+00
    -15.682  0.0000E+00  0.0000E+00
    -15.671  0.0000E+00  0.0000E+00
    -15.660  0.0000E+00  0.0000E+00
    -15.650  0.0000E+00  0.0000E+00
    -15.639  0.0000E+00  0.0000E+00
    -15.628  0.0000E+00  0.0000E+00
    -15.618  0.0000E+00  0.0000E+00
    -15.607  0.0000E+00  0.0000E+00
    -15.596  0.0000E+00  0.0000E+00
    -15.586  0.0000E+00  0.0000E+00
    -15.575  0.0000E+00  0.0000E+00
    -15.564  0.0000E+00  0.0000E+00
    -15.553  0.0000E+00  0.0000E+00
    -15.543  0.0000E+00  0.0000E+00
    -15.532  0.0000E+00  0.0000E+00
    -15.521  0.0000E+00  0.0000E+00
    -15.511  0.0000E+00  0.0000E+00
    -15.500  0.0000E+00  0.0000E+00
    -15.489  0.0000E+00  0.0000E+00
    -15.479  0.0000E+00  0.0000E+00
    -15.468  0.0000E+00  0.0000E+00
    -15.457  0.0000E+00  0.0000E+00
    -15.446  0.0000E+00  0.0000E+00
    -15.436  0.0000E+00  0.0000E+00
    -15.425  0.0000E+00  0.0000E+00
    -15.414  0.0000E+00  0.0000E+00
    -15.404  0.0000E+00  0.0000E+00
    -15.393  0.0000E+00  0.0000E+00
    -15.382  0.0000E+00  0.0000E+00
    -15.372  0.0000E+00  0.0000E+00
    -15.361  0.0000E+00  0.0000E+00
    -15.350  0.0000E+00  0.0000E+00
    -15.339  0.0000E+00  0.0000E+00
    -15.329  0.0000E+00  0.0000E+00
    -15.318  0.0000E+00  0.0000E+00
    -15.307  0.0000E+00  0.0000E+00
    -15.297  0.0000E+00  0.0000E+00
    -15.286  0.0000E+00  0.0000E+00
    -15.275  0.0000E+00  0.0000E+00
    -15.265  0.0000E+00  0.0000E+00
    -15.254  0.0000E+00  0.0000E+00
    -15.243  0.0000E+00  0.0000E+00
    -15.232  0.0000E+00  0.0000E+00
    -15.222  0.0000E+00  0.0000E+00
    -15.211  0.0000E+00  0.0000E+00
    -15.200  0.0000E+00  0.0000E+00
    -15.190  0.0000E+00  0.0000E+00
    -15.179  0.0000E+00  0.0000E+00
    -15.168  0.0000E+00  0.0000E+00
    -15.157  0.0000E+00  0.0000E+00
    -15.147  0.0000E+00  0.0000E+00
    -15.136  0.0000E+00  0.0000E+00
    -15.125  0.0000E+00  0.0000E+00
    -15.115  0.0000E+00  0.0000E+00
    -15.104  0.0000E+00  0.0000E+00
    -15.093  0.0000E+00  0.0000E+00
    -15.083  0.0000E+00  0.0000E+00
    -15.072  0.0000E+00  0.0000E+00
    -15.061  0.0000E+00  0.0000E+00
    -15.050  0.0000E+00  0.0000E+00
    -15.040  0.0000E+00  0.0000E+00
    -15.029  0.0000E+00  0.0000E+00
    -15.018  0.0000E+00  0.0000E+00
    -15.008  0.0000E+00  0.0000E+00
    -14.997  0.0000E+00  0.0000E+00
    -14.986  0.0000E+00  0.0000E+00
    -14.976  0.0000E+00  0.0000E+00
    -14.965  0.0000E+00  0.0000E+00
    -14.954  0.0000E+00  0.0000E+00
    -14.943  0.0000E+00  0.0000E+00
    -14.933  0.0000E+00  0.0000E+00
    -14.922  0.0000E+00  0.0000E+00
    -14.911  0.4073E-12  0.4359E-14
    -14.901  0.1112E-07  0.1190E-09
    -14.890  0.3260E-04  0.3490E-06
    -14.879  0.1064E-01  0.1142E-03
    -14.869  0.4147E+00  0.4553E-02
    -14.858  0.2163E+01  0.2770E-01
    -14.847  0.1671E+01  0.4558E-01
    -14.836  0.1875E+00  0.4759E-01
    -14.826  0.2719E-02  0.4762E-01
    -14.815  0.4603E-05  0.4762E-01
    -14.804  0.8569E-09  0.4762E-01
    -14.794  0.3187E-13  0.4762E-01
    -14.783  0.7805E-09  0.4762E-01
    -14.772  0.4283E-05  0.4762E-01
    -14.762  0.2584E-02  0.4765E-01
    -14.751  0.1818E+00  0.4959E-01
    -14.740  0.1652E+01  0.6727E-01
    -14.729  0.2178E+01  0.9057E-01
    -14.719  0.4903E+00  0.9582E-01
    -14.708  0.1521E+01  0.1121E+00
    -14.697  0.4844E+01  0.1639E+00
    -14.687  0.2364E+01  0.1892E+00
    -14.676  0.1019E+01  0.2001E+00
    -14.665  0.2447E+01  0.2263E+00
    -14.655  0.1038E+01  0.2374E+00
    -14.644  0.6872E-01  0.2382E+00
    -14.633  0.4257E+00  0.2427E+00
    -14.622  0.3502E+01  0.2802E+00
    -14.612  0.4203E+01  0.3252E+00
    -14.601  0.8100E+00  0.3338E+00
    -14.590  0.1524E+01  0.3502E+00
    -14.580  0.4843E+01  0.4020E+00
    -14.569  0.2326E+01  0.4269E+00
    -14.558  0.1583E+00  0.4286E+00
    -14.548  0.1525E-02  0.4286E+00
    -14.537  0.4118E-01  0.4290E+00
    -14.526  0.1192E+01  0.4418E+00
    -14.515  0.4902E+01  0.4942E+00
    -14.505  0.5424E+01  0.5523E+00
    -14.494  0.4951E+01  0.6053E+00
    -14.483  0.1331E+01  0.6195E+00
    -14.473  0.2490E+01  0.6462E+00
    -14.462  0.9415E+01  0.7469E+00
    -14.451  0.5467E+01  0.8054E+00
    -14.441  0.1935E+01  0.8261E+00
    -14.430  0.4842E+01  0.8779E+00
    -14.419  0.2344E+01  0.9030E+00
    -14.408  0.1610E+00  0.9047E+00
    -14.398  0.1389E-02  0.9048E+00
    -14.387  0.1733E-05  0.9048E+00
    -14.376  0.6245E-03  0.9048E+00
    -14.366  0.1223E+00  0.9061E+00
    -14.355  0.2927E+01  0.9374E+00
    -14.344  0.9656E+01  0.1041E+01
    -14.333  0.4758E+01  0.1092E+01
    -14.323  0.3327E+00  0.1095E+01
    -14.312  0.3482E-02  0.1095E+01
    -14.301  0.1134E+00  0.1096E+01
    -14.291  0.2816E+01  0.1127E+01
    -14.280  0.9612E+01  0.1229E+01
    -14.269  0.4902E+01  0.1282E+01
    -14.259  0.5550E+00  0.1288E+01
    -14.248  0.2585E+01  0.1316E+01
    -14.237  0.4758E+01  0.1366E+01
    -14.226  0.1308E+01  0.1380E+01
    -14.216  0.4927E-01  0.1381E+01
    -14.205  0.2257E-03  0.1381E+01
    -14.194  0.1163E-06  0.1381E+01
    -14.184  0.3838E-09  0.1381E+01
    -14.173  0.2852E-05  0.1381E+01
    -14.162  0.2356E-02  0.1381E+01
    -14.152  0.2245E+00  0.1383E+01
    -14.141  0.2715E+01  0.1412E+01
    -14.130  0.4701E+01  0.1463E+01
    -14.119  0.1213E+01  0.1476E+01
    -14.109  0.4539E-01  0.1476E+01
    -14.098  0.2431E+00  0.1479E+01
    -14.087  0.2808E+01  0.1509E+01
    -14.077  0.4657E+01  0.1559E+01
    -14.066  0.1151E+01  0.1571E+01
    -14.055  0.3865E-01  0.1571E+01
    -14.045  0.2068E-03  0.1571E+01
    -14.034  0.2185E-01  0.1572E+01
    -14.023  0.1134E+01  0.1584E+01
    -14.012  0.7734E+01  0.1667E+01
    -14.002  0.7748E+01  0.1749E+01
    -13.991  0.1140E+01  0.1762E+01
    -13.980  0.2205E-01  0.1762E+01
    -13.970  0.5034E-04  0.1762E+01
    -13.959  0.2219E-07  0.1762E+01
    -13.948  0.3414E-04  0.1762E+01
    -13.938  0.1372E-01  0.1762E+01
    -13.927  0.6816E+00  0.1769E+01
    -13.916  0.5578E+01  0.1829E+01
    -13.905  0.1221E+02  0.1960E+01
    -13.895  0.7385E+01  0.2039E+01
    -13.884  0.8208E+00  0.2047E+01
    -13.873  0.7337E-01  0.2048E+01
    -13.863  0.2023E+01  0.2070E+01
    -13.852  0.9075E+01  0.2167E+01
    -13.841  0.6051E+01  0.2232E+01
    -13.831  0.5819E+00  0.2238E+01
    -13.820  0.2594E-01  0.2238E+01
    -13.809  0.7732E+00  0.2247E+01
    -13.798  0.4246E+01  0.2292E+01
    -13.788  0.3470E+01  0.2329E+01
    -13.777  0.1544E+01  0.2346E+01
    -13.766  0.7747E+01  0.2429E+01
    -13.756  0.7758E+01  0.2512E+01
    -13.745  0.1844E+01  0.2531E+01
    -13.734  0.4163E+01  0.2576E+01
    -13.724  0.3577E+01  0.2614E+01
    -13.713  0.4510E+00  0.2619E+01
    -13.702  0.7408E-02  0.2619E+01
    -13.691  0.1459E-04  0.2619E+01
    -13.681  0.5805E-03  0.2619E+01
    -13.670  0.1165E+00  0.2620E+01
    -13.659  0.2855E+01  0.2651E+01
    -13.649  0.9628E+01  0.2754E+01
    -13.638  0.4849E+01  0.2806E+01
    -13.627  0.3470E+00  0.2809E+01
    -13.617  0.6289E-02  0.2810E+01
    -13.606  0.3497E+00  0.2813E+01
    -13.595  0.4866E+01  0.2865E+01
    -13.584  0.9623E+01  0.2968E+01
    -13.574  0.2850E+01  0.2999E+01
    -13.563  0.5898E+00  0.3005E+01
    -13.552  0.3642E+01  0.3044E+01
    -13.542  0.4085E+01  0.3088E+01
    -13.531  0.6758E+00  0.3095E+01
    -13.520  0.1481E-01  0.3095E+01
    -13.509  0.3782E-03  0.3095E+01
    -13.499  0.6463E-01  0.3096E+01
    -13.488  0.1506E+01  0.3112E+01
    -13.477  0.4842E+01  0.3164E+01
    -13.467  0.2327E+01  0.3189E+01
    -13.456  0.1711E+00  0.3191E+01
    -13.445  0.6191E+00  0.3197E+01
    -13.435  0.3975E+01  0.3240E+01
    -13.424  0.3763E+01  0.3280E+01
    -13.413  0.5219E+00  0.3286E+01
    -13.402  0.9485E-02  0.3286E+01
    -13.392  0.2029E-04  0.3286E+01
    -13.381  0.4868E-08  0.3286E+01
    -13.370  0.9030E-06  0.3286E+01
    -13.360  0.1247E-02  0.3286E+01
    -13.349  0.2013E+00  0.3288E+01
    -13.338  0.4399E+01  0.3335E+01
    -13.328  0.1645E+02  0.3511E+01
    -13.317  0.1260E+02  0.3646E+01
    -13.306  0.1898E+01  0.3666E+01
    -13.295  0.4493E-01  0.3667E+01
    -13.285  0.5825E-03  0.3667E+01
    -13.274  0.9793E-01  0.3668E+01
    -13.263  0.2608E+01  0.3696E+01
    -13.253  0.9524E+01  0.3798E+01
    -13.242  0.5981E+01  0.3862E+01
    -13.231  0.7293E+01  0.3940E+01
    -13.221  0.9751E+01  0.4044E+01
    -13.210  0.9504E+01  0.4146E+01
    -13.199  0.7659E+01  0.4228E+01
    -13.188  0.3481E+01  0.4265E+01
    -13.178  0.9426E+01  0.4366E+01
    -13.167  0.5422E+01  0.4424E+01
    -13.156  0.4472E+00  0.4429E+01
    -13.146  0.4683E-02  0.4429E+01
    -13.135  0.5655E-05  0.4429E+01
    -13.124  0.7464E-09  0.4429E+01
    -13.114  0.1186E-13  0.4429E+01
    -13.103  0.0000E+00  0.4429E+01
    -13.092  0.0000E+00  0.4429E+01
    -13.081  0.0000E+00  0.4429E+01
    -13.071  0.0000E+00  0.4429E+01
    -13.060  0.0000E+00  0.4429E+01
    -13.049  0.0000E+00  0.4429E+01
    -13.039  0.0000E+00  0.4429E+01
    -13.028  0.0000E+00  0.4429E+01
    -13.017  0.0000E+00  0.4429E+01
    -13.007  0.0000E+00  0.4429E+01
    -12.996  0.0000E+00  0.4429E+01
    -12.985  0.0000E+00  0.4429E+01
    -12.974  0.0000E+00  0.4429E+01
    -12.964  0.0000E+00  0.4429E+01
    -12.953  0.0000E+00  0.4429E+01
    -12.942  0.0000E+00  0.4429E+01
    -12.932  0.0000E+00  0.4429E+01
    -12.921  0.0000E+00  0.4429E+01
    -12.910  0.0000E+00  0.4429E+01
    -12.900  0.0000E+00  0.4429E+01
    -12.889  0.8399E-14  0.4429E+01
    -12.878  0.5522E-09  0.4429E+01
    -12.867  0.3834E-05  0.4429E+01
    -12.857  0.2914E-02  0.4429E+01
    -12.846  0.2561E+00  0.4431E+01
    -12.835  0.2871E+01  0.4462E+01
    -12.825  0.4624E+01  0.4512E+01
    -12.814  0.1109E+01  0.4523E+01
    -12.803  0.3880E-01  0.4524E+01
    -12.793  0.2448E+00  0.4526E+01
    -12.782  0.2817E+01  0.4557E+01
    -12.771  0.4695E+01  0.4607E+01
    -12.760  0.2395E+01  0.4632E+01
    -12.750  0.6020E+01  0.4697E+01
    -12.739  0.7477E+01  0.4777E+01
    -12.728  0.2838E+01  0.4807E+01
    -12.718  0.2074E+00  0.4810E+01
    -12.707  0.2365E-02  0.4810E+01
    -12.696  0.7946E-01  0.4810E+01
    -12.685  0.2393E+01  0.4836E+01
    -12.675  0.1083E+02  0.4952E+01
    -12.664  0.1067E+02  0.5066E+01
    -12.653  0.7089E+01  0.5142E+01
    -12.643  0.9931E+01  0.5248E+01
    -12.632  0.3361E+01  0.5284E+01
    -12.621  0.1625E+01  0.5302E+01
    -12.611  0.1459E+02  0.5458E+01
    -12.600  0.2259E+02  0.5700E+01
    -12.589  0.5631E+01  0.5760E+01
    -12.578  0.8627E+00  0.5769E+01
    -12.568  0.6353E+01  0.5837E+01
    -12.557  0.9168E+01  0.5935E+01
    -12.546  0.6338E+01  0.6003E+01
    -12.536  0.1243E+02  0.6136E+01
    -12.525  0.1609E+02  0.6308E+01
    -12.514  0.1530E+02  0.6472E+01
    -12.504  0.4852E+01  0.6524E+01
    -12.493  0.4468E+01  0.6572E+01
    -12.482  0.9795E+01  0.6676E+01
    -12.471  0.4191E+01  0.6721E+01
    -12.461  0.4452E+01  0.6769E+01
    -12.450  0.3394E+01  0.6805E+01
    -12.439  0.3903E+00  0.6809E+01
    -12.429  0.5816E-02  0.6810E+01
    -12.418  0.1017E-04  0.6810E+01
    -12.407  0.9850E-04  0.6810E+01
    -12.397  0.2250E-01  0.6810E+01
    -12.386  0.6237E+00  0.6816E+01
    -12.375  0.2361E+01  0.6842E+01
    -12.364  0.1333E+01  0.6856E+01
    -12.354  0.1076E+00  0.6857E+01
    -12.343  0.1102E-02  0.6857E+01
    -12.332  0.1300E-05  0.6857E+01
    -12.322  0.5443E-05  0.6857E+01
    -12.311  0.4556E-02  0.6857E+01
    -12.300  0.4397E+00  0.6862E+01
    -12.290  0.5407E+01  0.6920E+01
    -12.279  0.1033E+02  0.7030E+01
    -12.268  0.6882E+01  0.7104E+01
    -12.257  0.3296E+01  0.7139E+01
    -12.247  0.3411E+00  0.7143E+01
    -12.236  0.3890E+00  0.7147E+01
    -12.225  0.5076E+01  0.7201E+01
    -12.215  0.9571E+01  0.7304E+01
    -12.204  0.3787E+01  0.7344E+01
    -12.193  0.7774E+01  0.7427E+01
    -12.183  0.7812E+01  0.7511E+01
    -12.172  0.1285E+01  0.7525E+01
    -12.161  0.3377E+01  0.7561E+01
    -12.150  0.1373E+02  0.7708E+01
    -12.140  0.1020E+02  0.7817E+01
    -12.129  0.7613E+01  0.7898E+01
    -12.118  0.4583E+01  0.7948E+01
    -12.108  0.4490E+00  0.7952E+01
    -12.097  0.5704E-02  0.7952E+01
    -12.086  0.8482E-05  0.7952E+01
    -12.076  0.1114E-07  0.7952E+01
    -12.065  0.4108E-04  0.7952E+01
    -12.054  0.1913E-01  0.7953E+01
    -12.043  0.1049E+01  0.7964E+01
    -12.033  0.7538E+01  0.8044E+01
    -12.022  0.7938E+01  0.8129E+01
    -12.011  0.1230E+01  0.8143E+01
    -12.001  0.2532E-01  0.8143E+01
    -11.990  0.5446E-01  0.8143E+01
    -11.979  0.1902E+01  0.8164E+01
    -11.969  0.9001E+01  0.8260E+01
    -11.958  0.7211E+01  0.8337E+01
    -11.947  0.3083E+01  0.8370E+01
    -11.936  0.9933E+00  0.8381E+01
    -11.926  0.1783E+01  0.8400E+01
    -11.915  0.9043E+01  0.8497E+01
    -11.904  0.1245E+02  0.8630E+01
    -11.894  0.2028E+02  0.8847E+01
    -11.883  0.1466E+02  0.9004E+01
    -11.872  0.3806E+01  0.9045E+01
    -11.861  0.2757E+00  0.9048E+01
    -11.851  0.3083E-02  0.9048E+01
    -11.840  0.4120E-05  0.9048E+01
    -11.829  0.1397E-04  0.9048E+01
    -11.819  0.8942E-02  0.9048E+01
    -11.808  0.6660E+00  0.9055E+01
    -11.797  0.6386E+01  0.9123E+01
    -11.787  0.8863E+01  0.9218E+01
    -11.776  0.1825E+01  0.9238E+01
    -11.765  0.5069E-01  0.9238E+01
    -11.754  0.5127E-01  0.9239E+01
    -11.744  0.1837E+01  0.9258E+01
    -11.733  0.8881E+01  0.9353E+01
    -11.722  0.6883E+01  0.9427E+01
    -11.712  0.7861E+01  0.9511E+01
    -11.701  0.1443E+02  0.9666E+01
    -11.690  0.4371E+01  0.9712E+01
    -11.680  0.1855E+00  0.9714E+01
    -11.669  0.9813E-03  0.9714E+01
    -11.658  0.5979E-06  0.9714E+01
    -11.647  0.4018E-10  0.9714E+01
    -11.637  0.0000E+00  0.9714E+01
    -11.626  0.0000E+00  0.9714E+01
    -11.615  0.0000E+00  0.9714E+01
    -11.605  0.0000E+00  0.9714E+01
    -11.594  0.0000E+00  0.9714E+01
    -11.583  0.2371E-13  0.9714E+01
    -11.573  0.1439E-08  0.9714E+01
    -11.562  0.9412E-05  0.9714E+01
    -11.551  0.6749E-02  0.9714E+01
    -11.540  0.5608E+00  0.9720E+01
    -11.530  0.5961E+01  0.9784E+01
    -11.519  0.9128E+01  0.9882E+01
    -11.508  0.2079E+01  0.9904E+01
    -11.498  0.6405E-01  0.9905E+01
    -11.487  0.2377E-03  0.9905E+01
    -11.476  0.9870E-07  0.9905E+01
    -11.466  0.4423E-11  0.9905E+01
    -11.455  0.8540E-09  0.9905E+01
    -11.444  0.6280E-05  0.9905E+01
    -11.433  0.5050E-02  0.9905E+01
    -11.423  0.4688E+00  0.9910E+01
    -11.412  0.5561E+01  0.9969E+01
    -11.401  0.1036E+02  0.1008E+02
    -11.391  0.6887E+01  0.1015E+02
    -11.380  0.3122E+01  0.1019E+02
    -11.369  0.5479E+00  0.1019E+02
    -11.359  0.4817E+01  0.1024E+02
    -11.348  0.1823E+02  0.1044E+02
    -11.337  0.2179E+02  0.1067E+02
    -11.326  0.7762E+01  0.1076E+02
    -11.316  0.8255E+00  0.1076E+02
    -11.305  0.5220E+01  0.1082E+02
    -11.294  0.1447E+02  0.1098E+02
    -11.284  0.6325E+01  0.1104E+02
    -11.273  0.5004E+00  0.1105E+02
    -11.262  0.2530E+01  0.1108E+02
    -11.252  0.9465E+01  0.1118E+02
    -11.241  0.5289E+01  0.1123E+02
    -11.230  0.4463E+00  0.1124E+02
    -11.219  0.1292E+01  0.1125E+02
    -11.209  0.9817E+01  0.1136E+02
    -11.198  0.1257E+02  0.1149E+02
    -11.187  0.3546E+01  0.1153E+02
    -11.177  0.6511E+01  0.1160E+02
    -11.166  0.1078E+02  0.1171E+02
    -11.155  0.8986E+01  0.1181E+02
    -11.145  0.6994E+01  0.1189E+02
    -11.134  0.1713E+01  0.1190E+02
    -11.123  0.7271E-01  0.1190E+02
    -11.112  0.3991E-03  0.1190E+02
    -11.102  0.2499E-06  0.1190E+02
    -11.091  0.1696E-10  0.1190E+02
    -11.080  0.0000E+00  0.1190E+02
    -11.070  0.0000E+00  0.1190E+02
    -11.059  0.0000E+00  0.1190E+02
    -11.048  0.0000E+00  0.1190E+02
    -11.038  0.0000E+00  0.1190E+02
    -11.027  0.8018E-12  0.1190E+02
    -11.016  0.2196E-07  0.1190E+02
    -11.005  0.6455E-04  0.1190E+02
    -10.995  0.2113E-01  0.1190E+02
    -10.984  0.8263E+00  0.1191E+02
    -10.973  0.4322E+01  0.1196E+02
    -10.963  0.3348E+01  0.1200E+02
    -10.952  0.3766E+00  0.1200E+02
    -10.941  0.5481E-02  0.1200E+02
    -10.930  0.9306E-05  0.1200E+02
    -10.920  0.1738E-08  0.1200E+02
    -10.909  0.3458E-13  0.1200E+02
    -10.898  0.0000E+00  0.1200E+02
    -10.888  0.0000E+00  0.1200E+02
    -10.877  0.0000E+00  0.1200E+02
    -10.866  0.0000E+00  0.1200E+02
    -10.856  0.0000E+00  0.1200E+02
    -10.845  0.0000E+00  0.1200E+02
    -10.834  0.0000E+00  0.1200E+02
    -10.823  0.0000E+00  0.1200E+02
    -10.813  0.0000E+00  0.1200E+02
    -10.802  0.0000E+00  0.1200E+02
    -10.791  0.0000E+00  0.1200E+02
    -10.781  0.0000E+00  0.1200E+02
    -10.770  0.0000E+00  0.1200E+02
    -10.759  0.0000E+00  0.1200E+02
    -10.749  0.0000E+00  0.1200E+02
    -10.738  0.0000E+00  0.1200E+02
    -10.727  0.0000E+00  0.1200E+02
    -10.716  0.0000E+00  0.1200E+02
    -10.706  0.0000E+00  0.1200E+02
    -10.695  0.0000E+00  0.1200E+02
    -10.684  0.0000E+00  0.1200E+02
    -10.674  0.0000E+00  0.1200E+02
    -10.663  0.0000E+00  0.1200E+02
    -10.652  0.0000E+00  0.1200E+02
    -10.642  0.0000E+00  0.1200E+02
    -10.631  0.0000E+00  0.1200E+02
    -10.620  0.0000E+00  0.1200E+02
    -10.609  0.0000E+00  0.1200E+02
    -10.599  0.0000E+00  0.1200E+02
    -10.588  0.0000E+00  0.1200E+02
    -10.577  0.0000E+00  0.1200E+02
    -10.567  0.0000E+00  0.1200E+02
    -10.556  0.0000E+00  0.1200E+02
    -10.545  0.0000E+00  0.1200E+02
    -10.535  0.0000E+00  0.1200E+02
    -10.524  0.0000E+00  0.1200E+02
    -10.513  0.0000E+00  0.1200E+02
    -10.502  0.0000E+00  0.1200E+02
    -10.492  0.0000E+00  0.1200E+02
    -10.481  0.0000E+00  0.1200E+02
    -10.470  0.0000E+00  0.1200E+02
    -10.460  0.0000E+00  0.1200E+02
    -10.449  0.0000E+00  0.1200E+02
    -10.438  0.0000E+00  0.1200E+02
    -10.428  0.0000E+00  0.1200E+02
    -10.417  0.0000E+00  0.1200E+02
    -10.406  0.0000E+00  0.1200E+02
    -10.395  0.0000E+00  0.1200E+02
    -10.385  0.0000E+00  0.1200E+02
    -10.374  0.0000E+00  0.1200E+02
    -10.363  0.0000E+00  0.1200E+02
    -10.353  0.0000E+00  0.1200E+02
    -10.342  0.0000E+00  0.1200E+02
    -10.331  0.0000E+00  0.1200E+02
    -10.321  0.0000E+00  0.1200E+02
    -10.310  0.0000E+00  0.1200E+02
    -10.299  0.0000E+00  0.1200E+02
    -10.288  0.0000E+00  0.1200E+02
    -10.278  0.0000E+00  0.1200E+02
    -10.267  0.0000E+00  0.1200E+02
    -10.256  0.0000E+00  0.1200E+02
    -10.246  0.0000E+00  0.1200E+02
    -10.235  0.2618E-13  0.1200E+02
    -10.224  0.1395E-08  0.1200E+02
    -10.214  0.7855E-05  0.1200E+02
    -10.203  0.4860E-02  0.1200E+02
    -10.192  0.3503E+00  0.1200E+02
    -10.181  0.3256E+01  0.1204E+02
    -10.171  0.4388E+01  0.1209E+02
    -10.160  0.8767E+00  0.1209E+02
    -10.149  0.2350E-01  0.1210E+02
    -10.139  0.7538E-04  0.1210E+02
    -10.128  0.4196E-04  0.1210E+02
    -10.117  0.1941E-01  0.1210E+02
    -10.106  0.1058E+01  0.1211E+02
    -10.096  0.7560E+01  0.1219E+02
    -10.085  0.7918E+01  0.1227E+02
    -10.074  0.1220E+01  0.1229E+02
    -10.064  0.2479E-01  0.1229E+02
    -10.053  0.5957E-04  0.1229E+02
    -10.042  0.1586E-07  0.1229E+02
    -10.032  0.4506E-12  0.1229E+02
    -10.021  0.0000E+00  0.1229E+02
    -10.010  0.0000E+00  0.1229E+02
     -9.999  0.3508E-13  0.1229E+02
     -9.989  0.1749E-08  0.1229E+02
     -9.978  0.9351E-05  0.1229E+02
     -9.967  0.5499E-02  0.1229E+02
     -9.957  0.3774E+00  0.1229E+02
     -9.946  0.3350E+01  0.1233E+02
     -9.935  0.4320E+01  0.1237E+02
     -9.925  0.8250E+00  0.1238E+02
     -9.914  0.2220E-01  0.1238E+02
     -9.903  0.1808E+00  0.1238E+02
     -9.892  0.3564E+01  0.1242E+02
     -9.882  0.9794E+01  0.1253E+02
     -9.871  0.4026E+01  0.1257E+02
     -9.860  0.2323E+00  0.1257E+02
     -9.850  0.1667E-02  0.1257E+02
     -9.839  0.5173E-04  0.1257E+02
     -9.828  0.2206E-01  0.1257E+02
     -9.818  0.1140E+01  0.1258E+02
     -9.807  0.7748E+01  0.1267E+02
     -9.796  0.7741E+01  0.1275E+02
     -9.785  0.1585E+01  0.1277E+02
     -9.775  0.3676E+01  0.1281E+02
     -9.764  0.5805E+01  0.1287E+02
     -9.753  0.7000E+01  0.1294E+02
     -9.743  0.1048E+02  0.1306E+02
     -9.732  0.7285E+01  0.1313E+02
     -9.721  0.9010E+00  0.1314E+02
     -9.711  0.3277E-01  0.1314E+02
     -9.700  0.7633E+00  0.1315E+02
     -9.689  0.4707E+01  0.1320E+02
     -9.678  0.7187E+01  0.1328E+02
     -9.668  0.5639E+01  0.1334E+02
     -9.657  0.8475E+01  0.1343E+02
     -9.646  0.7709E+01  0.1351E+02
     -9.636  0.2331E+01  0.1354E+02
     -9.625  0.7952E+01  0.1362E+02
     -9.614  0.7546E+01  0.1370E+02
     -9.604  0.1052E+01  0.1371E+02
     -9.593  0.4376E-01  0.1371E+02
     -9.582  0.1212E+01  0.1373E+02
     -9.571  0.7903E+01  0.1381E+02
     -9.561  0.7576E+01  0.1389E+02
     -9.550  0.1064E+01  0.1390E+02
     -9.539  0.2170E-01  0.1390E+02
     -9.529  0.2679E+00  0.1391E+02
     -9.518  0.4306E+01  0.1395E+02
     -9.507  0.9759E+01  0.1406E+02
     -9.497  0.3307E+01  0.1409E+02
     -9.486  0.1555E+00  0.1410E+02
     -9.475  0.1601E-02  0.1410E+02
     -9.464  0.1320E+00  0.1410E+02
     -9.454  0.3045E+01  0.1413E+02
     -9.443  0.9695E+01  0.1423E+02
     -9.432  0.4613E+01  0.1428E+02
     -9.422  0.3109E+00  0.1429E+02
     -9.411  0.2628E-02  0.1429E+02
     -9.400  0.2544E-05  0.1429E+02
     -9.390  0.2682E-09  0.1429E+02
     -9.379  0.3952E-14  0.1429E+02
     -9.368  0.0000E+00  0.1429E+02
     -9.357  0.9881E-15  0.1429E+02
     -9.347  0.8948E-10  0.1429E+02
     -9.336  0.1075E-05  0.1429E+02
     -9.325  0.1401E-02  0.1429E+02
     -9.315  0.2076E+00  0.1429E+02
     -9.304  0.3813E+01  0.1433E+02
     -9.293  0.9803E+01  0.1443E+02
     -9.282  0.3770E+01  0.1447E+02
     -9.272  0.2027E+00  0.1448E+02
     -9.261  0.1351E-02  0.1448E+02
     -9.250  0.2197E-05  0.1448E+02
     -9.240  0.1495E-02  0.1448E+02
     -9.229  0.2166E+00  0.1448E+02
     -9.218  0.3929E+01  0.1452E+02
     -9.208  0.1134E+02  0.1464E+02
     -9.197  0.1256E+02  0.1478E+02
     -9.186  0.1225E+02  0.1491E+02
     -9.175  0.1035E+02  0.1502E+02
     -9.165  0.2651E+01  0.1505E+02
     -9.154  0.1001E+00  0.1505E+02
     -9.143  0.4622E-03  0.1505E+02
     -9.133  0.2400E-06  0.1505E+02
     -9.122  0.1345E-10  0.1505E+02
     -9.111  0.0000E+00  0.1505E+02
     -9.101  0.0000E+00  0.1505E+02
     -9.090  0.9098E-11  0.1505E+02
     -9.079  0.1526E-06  0.1505E+02
     -9.068  0.2762E-03  0.1505E+02
     -9.058  0.5637E-01  0.1505E+02
     -9.047  0.1404E+01  0.1506E+02
     -9.036  0.4821E+01  0.1511E+02
     -9.026  0.3451E+01  0.1515E+02
     -9.015  0.7584E+01  0.1523E+02
     -9.004  0.8207E+01  0.1532E+02
     -8.994  0.4474E+01  0.1537E+02
     -8.983  0.9760E+01  0.1547E+02
     -8.972  0.4451E+01  0.1552E+02
     -8.961  0.2995E+00  0.1552E+02
     -8.951  0.7923E+00  0.1553E+02
     -8.940  0.6816E+01  0.1561E+02
     -8.929  0.8554E+01  0.1570E+02
     -8.919  0.1588E+01  0.1571E+02
     -8.908  0.4655E-01  0.1571E+02
     -8.897  0.5824E+00  0.1572E+02
     -8.887  0.6053E+01  0.1579E+02
     -8.876  0.9087E+01  0.1588E+02
     -8.865  0.2844E+01  0.1591E+02
     -8.854  0.7096E+01  0.1599E+02
     -8.844  0.1054E+02  0.1610E+02
     -8.833  0.6469E+01  0.1617E+02
     -8.822  0.3827E+01  0.1621E+02
     -8.812  0.1574E+02  0.1638E+02
     -8.801  0.2343E+02  0.1663E+02
     -8.790  0.1081E+02  0.1675E+02
     -8.780  0.1899E+01  0.1677E+02
     -8.769  0.6112E+01  0.1683E+02
     -8.758  0.1295E+02  0.1697E+02
     -8.747  0.1031E+02  0.1708E+02
     -8.737  0.8331E+01  0.1717E+02
     -8.726  0.6241E+01  0.1724E+02
     -8.715  0.1001E+02  0.1734E+02
     -8.705  0.1384E+02  0.1749E+02
     -8.694  0.8062E+01  0.1758E+02
     -8.683  0.9714E+01  0.1768E+02
     -8.673  0.2810E+01  0.1771E+02
     -8.662  0.1130E+00  0.1771E+02
     -8.651  0.5560E-03  0.1771E+02
     -8.640  0.1853E-02  0.1771E+02
     -8.630  0.2099E+00  0.1772E+02
     -8.619  0.3145E+01  0.1775E+02
     -8.608  0.7168E+01  0.1783E+02
     -8.598  0.3285E+01  0.1786E+02
     -8.587  0.8060E+01  0.1795E+02
     -8.576  0.2110E+02  0.1817E+02
     -8.566  0.1325E+02  0.1832E+02
     -8.555  0.1602E+01  0.1833E+02
     -8.544  0.1567E+00  0.1833E+02
     -8.533  0.2603E+01  0.1836E+02
     -8.523  0.7336E+01  0.1844E+02
     -8.512  0.3174E+01  0.1848E+02
     -8.501  0.1339E+01  0.1849E+02
     -8.491  0.2425E+01  0.1852E+02
     -8.480  0.9144E+00  0.1853E+02
     -8.469  0.4616E+01  0.1857E+02
     -8.458  0.1858E+02  0.1877E+02
     -8.448  0.1128E+02  0.1889E+02
     -8.437  0.9878E+00  0.1890E+02
     -8.426  0.1127E-01  0.1890E+02
     -8.416  0.5418E-01  0.1891E+02
     -8.405  0.1897E+01  0.1893E+02
     -8.394  0.8944E+01  0.1902E+02
     -8.384  0.6262E+01  0.1909E+02
     -8.373  0.6338E+00  0.1910E+02
     -8.362  0.8244E-02  0.1910E+02
     -8.351  0.1246E-04  0.1910E+02
     -8.341  0.1151E-04  0.1910E+02
     -8.330  0.6367E-02  0.1910E+02
     -8.319  0.4121E+00  0.1910E+02
     -8.309  0.3463E+01  0.1914E+02
     -8.298  0.4385E+01  0.1918E+02
     -8.287  0.4021E+01  0.1923E+02
     -8.277  0.1010E+02  0.1933E+02
     -8.266  0.1017E+02  0.1944E+02
     -8.255  0.1485E+02  0.1960E+02
     -8.244  0.5667E+01  0.1966E+02
     -8.234  0.3214E+00  0.1967E+02
     -8.223  0.2379E-02  0.1967E+02
     -8.212  0.2107E-05  0.1967E+02
     -8.202  0.3036E-06  0.1967E+02
     -8.191  0.5502E-03  0.1967E+02
     -8.180  0.1125E+00  0.1967E+02
     -8.170  0.2822E+01  0.1970E+02
     -8.159  0.1037E+02  0.1981E+02
     -8.148  0.9173E+01  0.1991E+02
     -8.137  0.4963E+01  0.1996E+02
     -8.127  0.8171E+01  0.2005E+02
     -8.116  0.7733E+01  0.2013E+02
     -8.105  0.1130E+01  0.2014E+02
     -8.095  0.2173E-01  0.2014E+02
     -8.084  0.4929E-04  0.2014E+02
     -8.073  0.1237E-07  0.2014E+02
     -8.063  0.3320E-12  0.2014E+02
     -8.052  0.0000E+00  0.2014E+02
     -8.041  0.2026E-13  0.2014E+02
     -8.030  0.1126E-08  0.2014E+02
     -8.020  0.6657E-05  0.2014E+02
     -8.009  0.4321E-02  0.2014E+02
     -7.998  0.3262E+00  0.2015E+02
     -7.988  0.3167E+01  0.2018E+02
     -7.977  0.4449E+01  0.2023E+02
     -7.966  0.9275E+00  0.2024E+02
     -7.956  0.2601E-01  0.2024E+02
     -7.945  0.1137E-03  0.2024E+02
     -7.934  0.1397E-01  0.2024E+02
     -7.923  0.8709E+00  0.2025E+02
     -7.913  0.7064E+01  0.2032E+02
     -7.902  0.8356E+01  0.2041E+02
     -7.891  0.1460E+01  0.2043E+02
     -7.881  0.3392E-01  0.2043E+02
     -7.870  0.9372E-04  0.2043E+02
     -7.859  0.2877E-07  0.2043E+02
     -7.849  0.9466E-12  0.2043E+02
     -7.838  0.0000E+00  0.2043E+02
     -7.827  0.0000E+00  0.2043E+02
     -7.816  0.0000E+00  0.2043E+02
     -7.806  0.0000E+00  0.2043E+02
     -7.795  0.0000E+00  0.2043E+02
     -7.784  0.0000E+00  0.2043E+02
     -7.774  0.0000E+00  0.2043E+02
     -7.763  0.0000E+00  0.2043E+02
     -7.752  0.0000E+00  0.2043E+02
     -7.742  0.0000E+00  0.2043E+02
     -7.731  0.0000E+00  0.2043E+02
     -7.720  0.0000E+00  0.2043E+02
     -7.709  0.0000E+00  0.2043E+02
     -7.699  0.0000E+00  0.2043E+02
     -7.688  0.0000E+00  0.2043E+02
     -7.677  0.0000E+00  0.2043E+02
     -7.667  0.0000E+00  0.2043E+02
     -7.656  0.0000E+00  0.2043E+02
     -7.645  0.0000E+00  0.2043E+02
     -7.634  0.0000E+00  0.2043E+02
     -7.624  0.0000E+00  0.2043E+02
     -7.613  0.1497E-12  0.2043E+02
     -7.602  0.5681E-08  0.2043E+02
     -7.592  0.2309E-04  0.2043E+02
     -7.581  0.1038E-01  0.2043E+02
     -7.570  0.5502E+00  0.2043E+02
     -7.560  0.3830E+01  0.2048E+02
     -7.549  0.3916E+01  0.2052E+02
     -7.538  0.1062E+01  0.2053E+02
     -7.527  0.5576E+01  0.2059E+02
     -7.517  0.9339E+01  0.2069E+02
     -7.506  0.2335E+01  0.2071E+02
     -7.495  0.7949E-01  0.2071E+02
     -7.485  0.3277E-03  0.2071E+02
     -7.474  0.5235E-03  0.2071E+02
     -7.463  0.1088E+00  0.2072E+02
     -7.453  0.2755E+01  0.2074E+02
     -7.442  0.9585E+01  0.2085E+02
     -7.431  0.4979E+01  0.2090E+02
     -7.420  0.3682E+00  0.2090E+02
     -7.410  0.4750E-01  0.2091E+02
     -7.399  0.1692E+01  0.2092E+02
     -7.388  0.8697E+01  0.2102E+02
     -7.378  0.6624E+01  0.2109E+02
     -7.367  0.7322E+00  0.2110E+02
     -7.356  0.1086E-01  0.2110E+02
     -7.346  0.9112E-01  0.2110E+02
     -7.335  0.2511E+01  0.2112E+02
     -7.324  0.9456E+01  0.2122E+02
     -7.313  0.5311E+01  0.2128E+02
     -7.303  0.4263E+00  0.2129E+02
     -7.292  0.4336E-02  0.2129E+02
     -7.281  0.5803E-05  0.2129E+02
     -7.271  0.8686E-03  0.2129E+02
     -7.260  0.1193E+00  0.2129E+02
     -7.249  0.2038E+01  0.2131E+02
     -7.239  0.4895E+01  0.2136E+02
     -7.228  0.1758E+01  0.2138E+02
     -7.217  0.8792E-01  0.2138E+02
     -7.206  0.5427E-03  0.2138E+02
     -7.196  0.5969E-06  0.2138E+02
     -7.185  0.4288E-03  0.2138E+02
     -7.174  0.9523E-01  0.2138E+02
     -7.164  0.2570E+01  0.2141E+02
     -7.153  0.9490E+01  0.2151E+02
     -7.142  0.5228E+01  0.2157E+02
     -7.132  0.4111E+00  0.2157E+02
     -7.121  0.4093E-02  0.2157E+02
     -7.110  0.4691E-05  0.2157E+02
     -7.099  0.5870E-09  0.2157E+02
     -7.089  0.7905E-14  0.2157E+02
     -7.078  0.0000E+00  0.2157E+02
     -7.067  0.0000E+00  0.2157E+02
     -7.057  0.0000E+00  0.2157E+02
     -7.046  0.8043E-12  0.2157E+02
     -7.035  0.2202E-07  0.2157E+02
     -7.025  0.6468E-04  0.2157E+02
     -7.014  0.2116E-01  0.2157E+02
     -7.003  0.8270E+00  0.2158E+02