  12  12   1   0
  0.3973299E+02  0.3342886E-09  0.3260241E-08  0.4374831E-09  0.5000000E-15
  1.000000000000000E-004
  CAR 
 Generic Input                           
      5.85535056    -15.83997290 2000      0.94039359      1.00000000
    -15.840  0.0000E+00  0.0000E+00
    -15.829  0.0000E+00  0.0000E+00
    -15.818  0.0000E+00  0.0000E+00
    -15.807  0.0000E+00  0.0000E+00
    -15.797  0.0000E+00  0.0000E+00
    -15.786  0.0000E+00  0.0000E+00
    -15.775  0.0000E+00  0.0000E+00
    -15.764  0.0000E+00  0.0000E+00
    -15.753  0.0000E+00  0.0000E+00
    -15.742  0.0000E+00  0.0000E+00
    -15.731  0.0000E+00  0.0000E+00
    -15.721  0.0000E+00  0.0000E+00
    -15.710  0.0000E+00  0.0000E+00
    -15.699  0.0000E+00  0.0000E+00
    -15.688  0.0000E+00  0.0000E+00
    -15.677  0.0000E+00  0.0000E+00
    -15.666  0.0000E+00  0.0000E+00
    -15.655  0.0000E+00  0.0000E+00
    -15.645  0.0000E+00  0.0000E+00
    -15.634  0.0000E+00  0.0000E+00
    -15.623  0.0000E+00  0.0000E+00
    -15.612  0.0000E+00  0.0000E+00
    -15.601  0.0000E+00  0.0000E+00
    -15.590  0.0000E+00  0.0000E+00
    -15.579  0.0000E+00  0.0000E+00
    -15.569  0.0000E+00  0.0000E+00
    -15.558  0.0000E+00  0.0000E+00
    -15.547  0.0000E+00  0.0000E+00
    -15.536  0.0000E+00  0.0000E+00
    -15.525  0.0000E+00  0.0000E+00
    -15.514  0.0000E+00  0.0000E+00
    -15.504  0.0000E+00  0.0000E+00
    -15.493  0.0000E+00  0.0000E+00
    -15.482  0.0000E+00  0.0000E+00
    -15.471  0.0000E+00  0.0000E+00
    -15.460  0.0000E+00  0.0000E+00
    -15.449  0.0000E+00  0.0000E+00
    -15.438  0.0000E+00  0.0000E+00
    -15.428  0.0000E+00  0.0000E+00
    -15.417  0.0000E+00  0.0000E+00
    -15.406  0.0000E+00  0.0000E+00
    -15.395  0.0000E+00  0.0000E+00
    -15.384  0.0000E+00  0.0000E+00
    -15.373  0.0000E+00  0.0000E+00
    -15.362  0.0000E+00  0.0000E+00
    -15.352  0.0000E+00  0.0000E+00
    -15.341  0.0000E+00  0.0000E+00
    -15.330  0.0000E+00  0.0000E+00
    -15.319  0.0000E+00  0.0000E+00
    -15.308  0.0000E+00  0.0000E+00
    -15.297  0.0000E+00  0.0000E+00
    -15.286  0.0000E+00  0.0000E+00
    -15.276  0.0000E+00  0.0000E+00
    -15.265  0.0000E+00  0.0000E+00
    -15.254  0.0000E+00  0.0000E+00
    -15.243  0.0000E+00  0.0000E+00
    -15.232  0.0000E+00  0.0000E+00
    -15.221  0.0000E+00  0.0000E+00
    -15.210  0.0000E+00  0.0000E+00
    -15.200  0.0000E+00  0.0000E+00
    -15.189  0.0000E+00  0.0000E+00
    -15.178  0.0000E+00  0.0000E+00
    -15.167  0.0000E+00  0.0000E+00
    -15.156  0.0000E+00  0.0000E+00
    -15.145  0.0000E+00  0.0000E+00
    -15.135  0.0000E+00  0.0000E+00
    -15.124  0.0000E+00  0.0000E+00
    -15.113  0.0000E+00  0.0000E+00
    -15.102  0.0000E+00  0.0000E+00
    -15.091  0.0000E+00  0.0000E+00
    -15.080  0.0000E+00  0.0000E+00
    -15.069  0.0000E+00  0.0000E+00
    -15.059  0.0000E+00  0.0000E+00
    -15.048  0.0000E+00  0.0000E+00
    -15.037  0.0000E+00  0.0000E+00
    -15.026  0.0000E+00  0.0000E+00
    -15.015  0.0000E+00  0.0000E+00
    -15.004  0.0000E+00  0.0000E+00
    -14.993  0.0000E+00  0.0000E+00
    -14.983  0.0000E+00  0.0000E+00
    -14.972  0.0000E+00  0.0000E+00
    -14.961  0.0000E+00  0.0000E+00
    -14.950  0.0000E+00  0.0000E+00
    -14.939  0.0000E+00  0.0000E+00
    -14.928  0.0000E+00  0.0000E+00
    -14.917  0.0000E+00  0.0000E+00
    -14.907  0.3197E-12  0.3469E-14
    -14.896  0.1162E-07  0.1261E-09
    -14.885  0.4246E-04  0.4610E-06
    -14.874  0.1620E-01  0.1763E-03
    -14.863  0.6939E+00  0.7708E-02
    -14.852  0.3765E+01  0.4857E-01
    -14.841  0.2891E+01  0.7995E-01
    -14.831  0.3075E+00  0.8329E-01
    -14.820  0.3994E-02  0.8333E-01
    -14.809  0.5682E-05  0.8333E-01
    -14.798  0.8335E-09  0.8333E-01
    -14.787  0.9079E-13  0.8333E-01
    -14.776  0.3765E-08  0.8333E-01
    -14.766  0.1805E-04  0.8333E-01
    -14.755  0.8980E-02  0.8343E-01
    -14.744  0.4961E+00  0.8882E-01
    -14.733  0.3416E+01  0.1259E+00
    -14.722  0.3302E+01  0.1617E+00
    -14.711  0.4468E+00  0.1666E+00
    -14.700  0.7502E-02  0.1667E+00
    -14.690  0.1690E-02  0.1667E+00
    -14.679  0.1807E+00  0.1686E+00
    -14.668  0.2332E+01  0.1940E+00
    -14.657  0.4102E+01  0.2385E+00
    -14.646  0.1029E+01  0.2496E+00
    -14.635  0.3337E-01  0.2500E+00
    -14.624  0.1234E-03  0.2500E+00
    -14.614  0.4808E-07  0.2500E+00
    -14.603  0.1892E-11  0.2500E+00
    -14.592  0.0000E+00  0.2500E+00
    -14.581  0.5792E-11  0.2500E+00
    -14.570  0.1349E-06  0.2500E+00
    -14.559  0.3178E-03  0.2500E+00
    -14.548  0.7899E-01  0.2509E+00
    -14.538  0.2248E+01  0.2753E+00
    -14.527  0.8323E+01  0.3656E+00
    -14.516  0.4817E+01  0.4179E+00
    -14.505  0.5303E+01  0.4754E+00
    -14.494  0.8044E+01  0.5627E+00
    -14.483  0.1844E+01  0.5827E+00
    -14.472  0.5439E-01  0.5833E+00
    -14.462  0.1821E-03  0.5833E+00
    -14.451  0.1857E-06  0.5833E+00
    -14.440  0.2943E-03  0.5833E+00
    -14.429  0.7505E-01  0.5842E+00
    -14.418  0.2189E+01  0.6079E+00
    -14.407  0.8355E+01  0.6986E+00
    -14.397  0.6580E+01  0.7700E+00
    -14.386  0.8563E+01  0.8629E+00
    -14.375  0.4598E+01  0.9128E+00
    -14.364  0.3796E+00  0.9170E+00
    -14.353  0.1348E+01  0.9316E+00
    -14.342  0.7821E+01  0.1016E+01
    -14.331  0.1051E+02  0.1131E+01
    -14.321  0.8857E+01  0.1227E+01
    -14.310  0.2084E+01  0.1249E+01
    -14.299  0.6789E-01  0.1250E+01
    -14.288  0.2532E-03  0.1250E+01
    -14.277  0.9949E-07  0.1250E+01
    -14.266  0.3949E-11  0.1250E+01
    -14.255  0.0000E+00  0.1250E+01
    -14.245  0.0000E+00  0.1250E+01
    -14.234  0.2061E-10  0.1250E+01
    -14.223  0.4263E-06  0.1250E+01
    -14.212  0.8927E-03  0.1250E+01
    -14.201  0.1979E+00  0.1252E+01
    -14.190  0.5052E+01  0.1307E+01
    -14.179  0.1688E+02  0.1490E+01
    -14.169  0.8060E+01  0.1578E+01
    -14.158  0.5192E+00  0.1583E+01
    -14.147  0.3959E-02  0.1583E+01
    -14.136  0.3247E-05  0.1583E+01
    -14.125  0.2722E-09  0.1583E+01
    -14.114  0.1828E-07  0.1583E+01
    -14.103  0.8369E-04  0.1583E+01
    -14.093  0.3980E-01  0.1584E+01
    -14.082  0.2105E+01  0.1607E+01
    -14.071  0.1392E+02  0.1758E+01
    -14.060  0.1294E+02  0.1898E+01
    -14.049  0.1681E+01  0.1916E+01
    -14.038  0.2974E-01  0.1917E+01
    -14.028  0.4095E+00  0.1921E+01
    -14.017  0.7223E+01  0.2000E+01
    -14.006  0.1706E+02  0.2185E+01
    -13.995  0.5762E+01  0.2247E+01
    -13.984  0.2569E+00  0.2250E+01
    -13.973  0.1328E-02  0.2250E+01
    -13.962  0.7291E-06  0.2250E+01
    -13.952  0.4063E-10  0.2250E+01
    -13.941  0.0000E+00  0.2250E+01
    -13.930  0.0000E+00  0.2250E+01
    -13.919  0.0000E+00  0.2250E+01
    -13.908  0.0000E+00  0.2250E+01
    -13.897  0.0000E+00  0.2250E+01
    -13.886  0.0000E+00  0.2250E+01
    -13.876  0.0000E+00  0.2250E+01
    -13.865  0.0000E+00  0.2250E+01
    -13.854  0.0000E+00  0.2250E+01
    -13.843  0.0000E+00  0.2250E+01
    -13.832  0.0000E+00  0.2250E+01
    -13.821  0.0000E+00  0.2250E+01
    -13.810  0.0000E+00  0.2250E+01
    -13.800  0.0000E+00  0.2250E+01
    -13.789  0.0000E+00  0.2250E+01
    -13.778  0.0000E+00  0.2250E+01
    -13.767  0.0000E+00  0.2250E+01
    -13.756  0.0000E+00  0.2250E+01
    -13.745  0.0000E+00  0.2250E+01
    -13.734  0.0000E+00  0.2250E+01
    -13.724  0.0000E+00  0.2250E+01
    -13.713  0.0000E+00  0.2250E+01
    -13.702  0.0000E+00  0.2250E+01
    -13.691  0.0000E+00  0.2250E+01
    -13.680  0.0000E+00  0.2250E+01
    -13.669  0.0000E+00  0.2250E+01
    -13.659  0.0000E+00  0.2250E+01
    -13.648  0.0000E+00  0.2250E+01
    -13.637  0.0000E+00  0.2250E+01
    -13.626  0.4113E-10  0.2250E+01
    -13.615  0.6357E-06  0.2250E+01
    -13.604  0.9991E-03  0.2250E+01
    -13.593  0.1676E+00  0.2252E+01
    -13.583  0.3282E+01  0.2287E+01
    -13.572  0.8558E+01  0.2380E+01
    -13.561  0.3472E+01  0.2418E+01
    -13.550  0.4335E+01  0.2465E+01
    -13.539  0.8396E+01  0.2556E+01
    -13.528  0.2410E+01  0.2582E+01
    -13.517  0.9034E-01  0.2583E+01
    -13.507  0.4953E-03  0.2583E+01
    -13.496  0.3777E-01  0.2584E+01
    -13.485  0.1520E+01  0.2600E+01
    -13.474  0.8336E+01  0.2691E+01
    -13.463  0.1143E+02  0.2815E+01
    -13.452  0.8025E+01  0.2902E+01
    -13.441  0.2082E+01  0.2924E+01
    -13.431  0.6208E+01  0.2992E+01
    -13.420  0.7244E+01  0.3070E+01
    -13.409  0.2408E+01  0.3097E+01
    -13.398  0.7293E+01  0.3176E+01
    -13.387  0.6117E+01  0.3242E+01
    -13.376  0.7161E+00  0.3250E+01
    -13.365  0.1030E-01  0.3250E+01
    -13.355  0.1630E-04  0.3250E+01
    -13.344  0.2665E-08  0.3250E+01
    -13.333  0.4433E-13  0.3250E+01
    -13.322  0.0000E+00  0.3250E+01
    -13.311  0.1705E-14  0.3250E+01
    -13.300  0.2032E-09  0.3250E+01
    -13.289  0.2585E-05  0.3250E+01
    -13.279  0.3356E-02  0.3250E+01
    -13.268  0.4687E+00  0.3255E+01
    -13.257  0.7935E+01  0.3341E+01
    -13.246  0.2270E+02  0.3588E+01
    -13.235  0.2241E+02  0.3831E+01
    -13.224  0.7491E+01  0.3912E+01
    -13.214  0.4160E+00  0.3917E+01
    -13.203  0.2843E-02  0.3917E+01
    -13.192  0.3068E-01  0.3917E+01
    -13.181  0.1811E+01  0.3937E+01
    -13.170  0.1327E+02  0.4081E+01
    -13.159  0.1425E+02  0.4235E+01
    -13.148  0.1081E+02  0.4353E+01
    -13.138  0.1774E+02  0.4545E+01
    -13.127  0.1548E+02  0.4713E+01
    -13.116  0.1561E+02  0.4883E+01
    -13.105  0.3641E+01  0.4922E+01
    -13.094  0.8494E+01  0.5014E+01
    -13.083  0.1677E+02  0.5196E+01
    -13.072  0.4773E+01  0.5248E+01
    -13.062  0.1772E+00  0.5250E+01
    -13.051  0.7555E-03  0.5250E+01
    -13.040  0.3404E-06  0.5250E+01
    -13.029  0.1552E-10  0.5250E+01
    -13.018  0.0000E+00  0.5250E+01
    -13.007  0.0000E+00  0.5250E+01
    -12.996  0.0000E+00  0.5250E+01
    -12.986  0.0000E+00  0.5250E+01
    -12.975  0.0000E+00  0.5250E+01
    -12.964  0.0000E+00  0.5250E+01
    -12.953  0.0000E+00  0.5250E+01
    -12.942  0.0000E+00  0.5250E+01
    -12.931  0.0000E+00  0.5250E+01
    -12.920  0.0000E+00  0.5250E+01
    -12.910  0.0000E+00  0.5250E+01
    -12.899  0.0000E+00  0.5250E+01
    -12.888  0.0000E+00  0.5250E+01
    -12.877  0.0000E+00  0.5250E+01
    -12.866  0.0000E+00  0.5250E+01
    -12.855  0.0000E+00  0.5250E+01
    -12.845  0.0000E+00  0.5250E+01
    -12.834  0.0000E+00  0.5250E+01
    -12.823  0.0000E+00  0.5250E+01
    -12.812  0.0000E+00  0.5250E+01
    -12.801  0.0000E+00  0.5250E+01
    -12.790  0.0000E+00  0.5250E+01
    -12.779  0.0000E+00  0.5250E+01
    -12.769  0.0000E+00  0.5250E+01
    -12.758  0.0000E+00  0.5250E+01
    -12.747  0.0000E+00  0.5250E+01
    -12.736  0.0000E+00  0.5250E+01
    -12.725  0.0000E+00  0.5250E+01
    -12.714  0.0000E+00  0.5250E+01
    -12.703  0.0000E+00  0.5250E+01
    -12.693  0.0000E+00  0.5250E+01
    -12.682  0.0000E+00  0.5250E+01
    -12.671  0.0000E+00  0.5250E+01
    -12.660  0.0000E+00  0.5250E+01
    -12.649  0.1782E-12  0.5250E+01
    -12.638  0.8320E-08  0.5250E+01
    -12.627  0.3895E-04  0.5250E+01
    -12.617  0.1893E-01  0.5250E+01
    -12.606  0.1023E+01  0.5261E+01
    -12.595  0.6899E+01  0.5336E+01
    -12.584  0.6536E+01  0.5407E+01
    -12.573  0.8660E+00  0.5417E+01
    -12.562  0.1422E-01  0.5417E+01
    -12.551  0.2580E-04  0.5417E+01
    -12.541  0.4851E-08  0.5417E+01
    -12.530  0.9207E-13  0.5417E+01
    -12.519  0.1705E-14  0.5417E+01
    -12.508  0.1976E-09  0.5417E+01
    -12.497  0.2174E-05  0.5417E+01
    -12.486  0.2447E-02  0.5417E+01
    -12.476  0.2967E+00  0.5420E+01
    -12.465  0.4279E+01  0.5466E+01
    -12.454  0.8361E+01  0.5557E+01
    -12.443  0.2332E+01  0.5582E+01
    -12.432  0.8482E-01  0.5583E+01
    -12.421  0.2619E-01  0.5584E+01
    -12.410  0.1223E+01  0.5597E+01
    -12.400  0.7484E+01  0.5678E+01
    -12.389  0.1139E+02  0.5802E+01
    -12.378  0.1934E+02  0.6012E+01
    -12.367  0.1217E+02  0.6144E+01
    -12.356  0.2035E+01  0.6166E+01
    -12.345  0.7738E-01  0.6167E+01
    -12.334  0.6276E-01  0.6167E+01
    -12.324  0.2717E+01  0.6197E+01
    -12.313  0.1498E+02  0.6359E+01
    -12.302  0.1170E+02  0.6486E+01
    -12.291  0.3001E+01  0.6519E+01
    -12.280  0.1828E+02  0.6717E+01
    -12.269  0.3153E+02  0.7059E+01
    -12.258  0.9436E+01  0.7162E+01
    -12.248  0.4387E+00  0.7167E+01
    -12.237  0.2635E-02  0.7167E+01
    -12.226  0.1773E-05  0.7167E+01
    -12.215  0.1238E-09  0.7167E+01
    -12.204  0.1432E-12  0.7167E+01
    -12.193  0.7968E-08  0.7167E+01
    -12.182  0.4439E-04  0.7167E+01
    -12.172  0.2559E-01  0.7167E+01
    -12.161  0.1628E+01  0.7185E+01
    -12.150  0.1280E+02  0.7324E+01
    -12.139  0.1434E+02  0.7479E+01
    -12.128  0.4994E+01  0.7533E+01
    -12.117  0.3865E+01  0.7575E+01
    -12.107  0.1607E+01  0.7593E+01
    -12.096  0.1014E+02  0.7703E+01
    -12.085  0.1608E+02  0.7877E+01
    -12.074  0.5841E+01  0.7941E+01
    -12.063  0.8419E+01  0.8032E+01
    -12.052  0.4570E+01  0.8082E+01
    -12.041  0.3576E+01  0.8120E+01
    -12.031  0.8559E+01  0.8213E+01
    -12.020  0.3214E+01  0.8248E+01
    -12.009  0.1604E+00  0.8250E+01
    -11.998  0.9355E-03  0.8250E+01
    -11.987  0.1918E-02  0.8250E+01
    -11.976  0.2545E+00  0.8253E+01
    -11.965  0.4028E+01  0.8296E+01
    -11.955  0.9505E+01  0.8400E+01
    -11.944  0.6675E+01  0.8472E+01
    -11.933  0.2401E+01  0.8498E+01
    -11.922  0.6832E+00  0.8506E+01
    -11.911  0.5374E+01  0.8564E+01
    -11.900  0.7814E+01  0.8649E+01
    -11.889  0.1613E+01  0.8666E+01
    -11.879  0.4875E-01  0.8667E+01
    -11.868  0.6913E+00  0.8674E+01
    -11.857  0.9150E+01  0.8774E+01
    -11.846  0.1649E+02  0.8952E+01
    -11.835  0.4237E+01  0.8998E+01
    -11.824  0.1411E+00  0.9000E+01
    -11.813  0.1321E-01  0.9000E+01
    -11.803  0.8095E+00  0.9009E+01
    -11.792  0.6387E+01  0.9078E+01
    -11.781  0.7118E+01  0.9155E+01
    -11.770  0.4260E+01  0.9202E+01
    -11.759  0.1558E+02  0.9371E+01
    -11.748  0.1085E+02  0.9489E+01
    -11.738  0.1695E+01  0.9507E+01
    -11.727  0.8940E+01  0.9604E+01
    -11.716  0.1658E+02  0.9784E+01
    -11.705  0.4394E+01  0.9832E+01
    -11.694  0.1512E+00  0.9833E+01
    -11.683  0.5950E-03  0.9833E+01
    -11.672  0.2470E-06  0.9833E+01
    -11.662  0.5117E-10  0.9833E+01
    -11.651  0.6317E-06  0.9833E+01
    -11.640  0.9946E-03  0.9833E+01
    -11.629  0.1671E+00  0.9835E+01
    -11.618  0.3278E+01  0.9871E+01
    -11.607  0.8556E+01  0.9964E+01
    -11.596  0.3196E+01  0.9998E+01
    -11.586  0.1967E+00  0.1000E+02
    -11.575  0.1522E+01  0.1002E+02
    -11.564  0.7706E+01  0.1010E+02
    -11.553  0.5536E+01  0.1016E+02
    -11.542  0.5490E+00  0.1017E+02
    -11.531  0.3296E-01  0.1017E+02
    -11.520  0.1656E+01  0.1018E+02
    -11.510  0.1287E+02  0.1032E+02
    -11.499  0.1398E+02  0.1048E+02
    -11.488  0.2136E+01  0.1050E+02
    -11.477  0.4084E-01  0.1050E+02
    -11.466  0.3753E-03  0.1050E+02
    -11.455  0.9292E-01  0.1050E+02
    -11.444  0.3387E+01  0.1054E+02
    -11.434  0.1580E+02  0.1071E+02
    -11.423  0.1047E+02  0.1082E+02
    -11.412  0.9539E+00  0.1083E+02
    -11.401  0.1051E-01  0.1083E+02
    -11.390  0.1261E-04  0.1083E+02
    -11.379  0.2452E-08  0.1083E+02
    -11.369  0.8239E-05  0.1083E+02
    -11.358  0.7752E-02  0.1083E+02
    -11.347  0.7910E+00  0.1084E+02
    -11.336  0.9692E+01  0.1095E+02
    -11.325  0.1624E+02  0.1112E+02
    -11.314  0.4612E+01  0.1117E+02
    -11.303  0.9547E+01  0.1128E+02
    -11.293  0.1636E+02  0.1145E+02
    -11.282  0.4046E+01  0.1150E+02
    -11.271  0.1293E+00  0.1150E+02
    -11.260  0.4710E-03  0.1150E+02
    -11.249  0.1806E-06  0.1150E+02
    -11.238  0.6990E-11  0.1150E+02
    -11.227  0.0000E+00  0.1150E+02
    -11.217  0.0000E+00  0.1150E+02
    -11.206  0.0000E+00  0.1150E+02
    -11.195  0.0000E+00  0.1150E+02
    -11.184  0.0000E+00  0.1150E+02
    -11.173  0.0000E+00  0.1150E+02
    -11.162  0.0000E+00  0.1150E+02
    -11.151  0.0000E+00  0.1150E+02
    -11.141  0.0000E+00  0.1150E+02
    -11.130  0.0000E+00  0.1150E+02
    -11.119  0.0000E+00  0.1150E+02
    -11.108  0.0000E+00  0.1150E+02
    -11.097  0.0000E+00  0.1150E+02
    -11.086  0.1565E-11  0.1150E+02
    -11.075  0.4757E-07  0.1150E+02
    -11.065  0.1457E-03  0.1150E+02
    -11.054  0.4679E-01  0.1150E+02
    -11.043  0.1700E+01  0.1152E+02
    -11.032  0.7906E+01  0.1160E+02
    -11.021  0.5224E+01  0.1166E+02
    -11.010  0.4745E+00  0.1167E+02
    -10.999  0.5210E-02  0.1167E+02
    -10.989  0.6229E-05  0.1167E+02
    -10.978  0.7651E-09  0.1167E+02
    -10.967  0.1023E-13  0.1167E+02
    -10.956  0.0000E+00  0.1167E+02
    -10.945  0.0000E+00  0.1167E+02
    -10.934  0.0000E+00  0.1167E+02
    -10.924  0.0000E+00  0.1167E+02
    -10.913  0.0000E+00  0.1167E+02
    -10.902  0.0000E+00  0.1167E+02
    -10.891  0.0000E+00  0.1167E+02
    -10.880  0.0000E+00  0.1167E+02
    -10.869  0.0000E+00  0.1167E+02
    -10.858  0.0000E+00  0.1167E+02
    -10.848  0.3972E-12  0.1167E+02
    -10.837  0.1587E-07  0.1167E+02
    -10.826  0.6362E-04  0.1167E+02
    -10.815  0.2658E-01  0.1167E+02
    -10.804  0.1242E+01  0.1168E+02
    -10.793  0.7307E+01  0.1176E+02
    -10.782  0.6070E+01  0.1183E+02
    -10.772  0.7011E+00  0.1183E+02
    -10.761  0.9942E-02  0.1183E+02
    -10.750  0.1550E-04  0.1183E+02
    -10.739  0.2495E-08  0.1183E+02
    -10.728  0.4092E-13  0.1183E+02
    -10.717  0.0000E+00  0.1183E+02
    -10.706  0.0000E+00  0.1183E+02
    -10.696  0.0000E+00  0.1183E+02
    -10.685  0.0000E+00  0.1183E+02
    -10.674  0.1202E-12  0.1183E+02
    -10.663  0.6069E-08  0.1183E+02
    -10.652  0.3062E-04  0.1183E+02
    -10.641  0.1602E-01  0.1183E+02
    -10.630  0.9285E+00  0.1184E+02
    -10.620  0.6688E+01  0.1192E+02
    -10.609  0.6751E+01  0.1199E+02
    -10.598  0.9556E+00  0.1200E+02
    -10.587  0.1683E-01  0.1200E+02
    -10.576  0.3288E-04  0.1200E+02
    -10.565  0.6662E-08  0.1200E+02
    -10.555  0.1364E-12  0.1200E+02
    -10.544  0.0000E+00  0.1200E+02
    -10.533  0.0000E+00  0.1200E+02
    -10.522  0.0000E+00  0.1200E+02
    -10.511  0.0000E+00  0.1200E+02
    -10.500  0.0000E+00  0.1200E+02
    -10.489  0.0000E+00  0.1200E+02
    -10.479  0.0000E+00  0.1200E+02
    -10.468  0.0000E+00  0.1200E+02
    -10.457  0.0000E+00  0.1200E+02
    -10.446  0.0000E+00  0.1200E+02
    -10.435  0.0000E+00  0.1200E+02
    -10.424  0.0000E+00  0.1200E+02
    -10.413  0.0000E+00  0.1200E+02
    -10.403  0.0000E+00  0.1200E+02
    -10.392  0.0000E+00  0.1200E+02
    -10.381  0.0000E+00  0.1200E+02
    -10.370  0.0000E+00  0.1200E+02
    -10.359  0.0000E+00  0.1200E+02
    -10.348  0.0000E+00  0.1200E+02
    -10.337  0.0000E+00  0.1200E+02
    -10.327  0.0000E+00  0.1200E+02
    -10.316  0.0000E+00  0.1200E+02
    -10.305  0.0000E+00  0.1200E+02
    -10.294  0.4373E-12  0.1200E+02
    -10.283  0.1714E-07  0.1200E+02
    -10.272  0.6743E-04  0.1200E+02
    -10.261  0.2766E-01  0.1200E+02
    -10.251  0.1270E+01  0.1201E+02
    -10.240  0.7353E+01  0.1209E+02
    -10.229  0.6013E+01  0.1216E+02
    -10.218  0.6831E+00  0.1217E+02
    -10.207  0.9518E-02  0.1217E+02
    -10.196  0.1942E-04  0.1217E+02
    -10.186  0.4357E-02  0.1217E+02
    -10.175  0.4251E+00  0.1217E+02
    -10.164  0.4995E+01  0.1223E+02
    -10.153  0.8180E+01  0.1231E+02
    -10.142  0.4868E+01  0.1237E+02
    -10.131  0.8601E+01  0.1246E+02
    -10.120  0.3452E+01  0.1250E+02
    -10.110  0.1861E+00  0.1250E+02
    -10.099  0.1176E-02  0.1250E+02
    -10.088  0.7942E-06  0.1250E+02
    -10.077  0.5459E-10  0.1250E+02
    -10.066  0.0000E+00  0.1250E+02
    -10.055  0.0000E+00  0.1250E+02
    -10.044  0.0000E+00  0.1250E+02
    -10.034  0.0000E+00  0.1250E+02
    -10.023  0.0000E+00  0.1250E+02
    -10.012  0.0000E+00  0.1250E+02
    -10.001  0.0000E+00  0.1250E+02
     -9.990  0.0000E+00  0.1250E+02
     -9.979  0.0000E+00  0.1250E+02
     -9.968  0.0000E+00  0.1250E+02
     -9.958  0.0000E+00  0.1250E+02
     -9.947  0.0000E+00  0.1250E+02
     -9.936  0.0000E+00  0.1250E+02
     -9.925  0.0000E+00  0.1250E+02
     -9.914  0.0000E+00  0.1250E+02
     -9.903  0.0000E+00  0.1250E+02
     -9.892  0.0000E+00  0.1250E+02
     -9.882  0.0000E+00  0.1250E+02
     -9.871  0.0000E+00  0.1250E+02
     -9.860  0.0000E+00  0.1250E+02
     -9.849  0.0000E+00  0.1250E+02
     -9.838  0.0000E+00  0.1250E+02
     -9.827  0.0000E+00  0.1250E+02
     -9.817  0.0000E+00  0.1250E+02
     -9.806  0.2046E-13  0.1250E+02
     -9.795  0.1651E-08  0.1250E+02
     -9.784  0.1321E-04  0.1250E+02
     -9.773  0.1087E-01  0.1250E+02
     -9.762  0.9736E+00  0.1251E+02
     -9.751  0.1056E+02  0.1263E+02
     -9.741  0.1575E+02  0.1280E+02
     -9.730  0.3336E+01  0.1283E+02
     -9.719  0.9037E-01  0.1283E+02
     -9.708  0.2768E-03  0.1283E+02
     -9.697  0.8884E-07  0.1283E+02
     -9.686  0.2871E-11  0.1283E+02
     -9.675  0.0000E+00  0.1283E+02
     -9.665  0.0000E+00  0.1283E+02
     -9.654  0.0000E+00  0.1283E+02
     -9.643  0.2694E-12  0.1283E+02
     -9.632  0.1330E-07  0.1283E+02
     -9.621  0.6566E-04  0.1283E+02
     -9.610  0.3363E-01  0.1283E+02
     -9.599  0.1910E+01  0.1285E+02
     -9.589  0.1350E+02  0.1300E+02
     -9.578  0.1338E+02  0.1315E+02
     -9.567  0.1858E+01  0.1317E+02
     -9.556  0.3303E-01  0.1317E+02
     -9.545  0.1639E+00  0.1317E+02
     -9.534  0.3247E+01  0.1320E+02
     -9.523  0.8556E+01  0.1330E+02
     -9.513  0.3226E+01  0.1333E+02
     -9.502  0.1848E+00  0.1333E+02
     -9.491  0.1539E+01  0.1335E+02
     -9.480  0.1295E+02  0.1349E+02
     -9.469  0.2142E+02  0.1372E+02
     -9.458  0.1930E+02  0.1393E+02
     -9.448  0.6120E+01  0.1400E+02
     -9.437  0.5300E+01  0.1406E+02
     -9.426  0.1687E+02  0.1424E+02
     -9.415  0.8273E+01  0.1433E+02
     -9.404  0.3953E+01  0.1437E+02
     -9.393  0.8553E+01  0.1447E+02
     -9.382  0.3049E+01  0.1450E+02
     -9.372  0.1440E+00  0.1450E+02
     -9.361  0.7908E-03  0.1450E+02
     -9.350  0.4624E-06  0.1450E+02
     -9.339  0.2746E-10  0.1450E+02
     -9.328  0.2387E-13  0.1450E+02
     -9.317  0.1809E-08  0.1450E+02
     -9.306  0.1418E-04  0.1450E+02
     -9.296  0.1143E-01  0.1450E+02
     -9.285  0.1004E+01  0.1451E+02
     -9.274  0.1069E+02  0.1463E+02
     -9.263  0.1566E+02  0.1480E+02
     -9.252  0.3259E+01  0.1483E+02
     -9.241  0.8661E-01  0.1483E+02
     -9.230  0.2600E-03  0.1483E+02
     -9.220  0.6504E-06  0.1483E+02
     -9.209  0.1105E-02  0.1483E+02
     -9.198  0.2284E+00  0.1484E+02
     -9.187  0.5545E+01  0.1490E+02
     -9.176  0.1977E+02  0.1511E+02
     -9.165  0.1612E+02  0.1529E+02
     -9.154  0.4180E+01  0.1533E+02
     -9.144  0.2217E+00  0.1533E+02
     -9.133  0.1512E-02  0.1533E+02
     -9.122  0.1118E-05  0.1533E+02
     -9.111  0.8439E-10  0.1533E+02
     -9.100  0.0000E+00  0.1533E+02
     -9.089  0.1129E-10  0.1533E+02
     -9.078  0.2644E-06  0.1533E+02
     -9.068  0.6260E-03  0.1533E+02
     -9.057  0.1564E+00  0.1534E+02
     -9.046  0.4472E+01  0.1538E+02
     -9.035  0.1662E+02  0.1556E+02
     -9.024  0.8899E+01  0.1566E+02
     -9.013  0.3750E+01  0.1570E+02
     -9.003  0.1548E+02  0.1587E+02
     -8.992  0.1096E+02  0.1599E+02
     -8.981  0.1076E+01  0.1600E+02
     -8.970  0.1292E-01  0.1600E+02
     -8.959  0.1706E-04  0.1600E+02
     -8.948  0.2348E-08  0.1600E+02
     -8.937  0.2996E-06  0.1600E+02
     -8.927  0.5744E-03  0.1600E+02
     -8.916  0.1172E+00  0.1600E+02
     -8.905  0.2860E+01  0.1603E+02
     -8.894  0.1226E+02  0.1617E+02
     -8.883  0.1990E+02  0.1638E+02
     -8.872  0.1010E+02  0.1649E+02
     -8.861  0.1228E+01  0.1650E+02
     -8.851  0.5276E+01  0.1656E+02
     -8.840  0.1444E+02  0.1672E+02
     -8.829  0.1780E+02  0.1691E+02
     -8.818  0.7548E+01  0.1699E+02
     -8.807  0.6058E+00  0.1700E+02
     -8.796  0.2124E-01  0.1700E+02
     -8.785  0.1160E+01  0.1701E+02
     -8.775  0.1131E+02  0.1714E+02
     -8.764  0.1525E+02  0.1730E+02
     -8.753  0.2912E+01  0.1733E+02
     -8.742  0.2123E+00  0.1733E+02
     -8.731  0.3025E+01  0.1737E+02
     -8.720  0.8547E+01  0.1746E+02
     -8.709  0.3455E+01  0.1750E+02
     -8.699  0.1864E+00  0.1750E+02
     -8.688  0.6688E-02  0.1750E+02
     -8.677  0.6393E+00  0.1751E+02
     -8.666  0.8845E+01  0.1760E+02
     -8.655  0.1661E+02  0.1778E+02
     -8.644  0.4454E+01  0.1783E+02
     -8.634  0.1554E+00  0.1783E+02
     -8.623  0.6310E-01  0.1783E+02
     -8.612  0.1421E+01  0.1785E+02
     -8.601  0.4261E+01  0.1790E+02
     -8.590  0.1864E+01  0.1792E+02
     -8.579  0.1585E+01  0.1793E+02
     -8.568  0.7656E+01  0.1802E+02
     -8.558  0.5609E+01  0.1808E+02
     -8.547  0.5691E+00  0.1808E+02
     -8.536  0.1606E+00  0.1809E+02
     -8.525  0.3265E+01  0.1812E+02
     -8.514  0.1563E+02  0.1829E+02
     -8.503  0.1669E+02  0.1847E+02
     -8.492  0.5804E+01  0.1853E+02
     -8.482  0.3822E+01  0.1858E+02
     -8.471  0.6858E+00  0.1858E+02
     -8.460  0.1592E-01  0.1858E+02
     -8.449  0.4098E-01  0.1858E+02
     -8.438  0.2793E+01  0.1861E+02
     -8.427  0.2400E+02  0.1887E+02
     -8.416  0.2931E+02  0.1919E+02
     -8.406  0.5167E+01  0.1925E+02
     -8.395  0.1179E+00  0.1925E+02
     -8.384  0.3094E-03  0.1925E+02
     -8.373  0.8667E-07  0.1925E+02
     -8.362  0.2493E-11  0.1925E+02
     -8.351  0.0000E+00  0.1925E+02
     -8.340  0.0000E+00  0.1925E+02
     -8.330  0.0000E+00  0.1925E+02
     -8.319  0.0000E+00  0.1925E+02
     -8.308  0.8184E-13  0.1925E+02
     -8.297  0.4429E-08  0.1925E+02
     -8.286  0.2407E-04  0.1925E+02
     -8.275  0.1354E-01  0.1925E+02
     -8.265  0.8416E+00  0.1926E+02
     -8.254  0.6473E+01  0.1933E+02
     -8.243  0.6957E+01  0.1941E+02
     -8.232  0.1051E+01  0.1942E+02
     -8.221  0.1985E-01  0.1942E+02
     -8.210  0.4170E-04  0.1942E+02
     -8.199  0.9100E-08  0.1942E+02
     -8.189  0.6257E-12  0.1942E+02
     -8.178  0.1921E-07  0.1942E+02
     -8.167  0.8691E-04  0.1942E+02
     -8.156  0.4086E-01  0.1942E+02
     -8.145  0.2137E+01  0.1944E+02
     -8.134  0.1399E+02  0.1959E+02
     -8.123  0.1287E+02  0.1973E+02
     -8.113  0.1654E+01  0.1975E+02
     -8.102  0.2629E-01  0.1975E+02
     -8.091  0.4614E-04  0.1975E+02
     -8.080  0.8382E-08  0.1975E+02
     -8.069  0.1500E-12  0.1975E+02
     -8.058  0.0000E+00  0.1975E+02
     -8.047  0.0000E+00  0.1975E+02
     -8.037  0.8525E-14  0.1975E+02
     -8.026  0.7233E-09  0.1975E+02
     -8.015  0.5964E-05  0.1975E+02
     -8.004  0.5051E-02  0.1975E+02
     -7.993  0.4656E+00  0.1976E+02
     -7.982  0.5184E+01  0.1981E+02
     -7.971  0.7930E+01  0.1990E+02
     -7.961  0.1724E+01  0.1992E+02
     -7.950  0.4801E-01  0.1992E+02
     -7.939  0.1514E-03  0.1992E+02
     -7.928  0.3011E-04  0.1992E+02
     -7.917  0.1946E-01  0.1992E+02
     -7.906  0.1384E+01  0.1993E+02
     -7.896  0.1208E+02  0.2006E+02
     -7.885  0.1466E+02  0.2022E+02
     -7.874  0.2511E+01  0.2025E+02
     -7.863  0.5422E-01  0.2025E+02
     -7.852  0.1310E-03  0.2025E+02
     -7.841  0.3297E-07  0.2025E+02
     -7.830  0.8320E-12  0.2025E+02
     -7.820  0.0000E+00  0.2025E+02
     -7.809  0.0000E+00  0.2025E+02
     -7.798  0.0000E+00  0.2025E+02
     -7.787  0.0000E+00  0.2025E+02
     -7.776  0.0000E+00  0.2025E+02
     -7.765  0.0000E+00  0.2025E+02
     -7.754  0.0000E+00  0.2025E+02
     -7.744  0.0000E+00  0.2025E+02
     -7.733  0.0000E+00  0.2025E+02
     -7.722  0.0000E+00  0.2025E+02
     -7.711  0.0000E+00  0.2025E+02
     -7.700  0.0000E+00  0.2025E+02
     -7.689  0.0000E+00  0.2025E+02
     -7.678  0.0000E+00  0.2025E+02
     -7.668  0.0000E+00  0.2025E+02
     -7.657  0.0000E+00  0.2025E+02
     -7.646  0.0000E+00  0.2025E+02
     -7.635  0.0000E+00  0.2025E+02
     -7.624  0.0000E+00  0.2025E+02
     -7.613  0.0000E+00  0.2025E+02
     -7.602  0.0000E+00  0.2025E+02
     -7.592  0.0000E+00  0.2025E+02
     -7.581  0.5115E-14  0.2025E+02
     -7.570  0.5807E-09  0.2025E+02
     -7.559  0.5871E-05  0.2025E+02
     -7.548  0.6077E-02  0.2025E+02
     -7.537  0.6798E+00  0.2026E+02
     -7.527  0.9085E+01  0.2036E+02
     -7.516  0.1652E+02  0.2054E+02
     -7.505  0.4282E+01  0.2058E+02
     -7.494  0.1440E+00  0.2058E+02
     -7.483  0.5529E-03  0.2058E+02
     -7.472  0.3408E-05  0.2058E+02
     -7.461  0.3904E-02  0.2058E+02
     -7.451  0.5146E+00  0.2059E+02
     -7.440  0.8035E+01  0.2068E+02
     -7.429  0.1766E+02  0.2087E+02
     -7.418  0.1467E+02  0.2103E+02
     -7.407  0.1648E+02  0.2121E+02
     -7.396  0.3935E+01  0.2125E+02
     -7.385  0.1227E+00  0.2125E+02
     -7.375  0.4354E-03  0.2125E+02
     -7.364  0.1625E-06  0.2125E+02
     -7.353  0.6124E-11  0.2125E+02
     -7.342  0.0000E+00  0.2125E+02
     -7.331  0.0000E+00  0.2125E+02
     -7.320  0.0000E+00  0.2125E+02
     -7.309  0.0000E+00  0.2125E+02
     -7.299  0.0000E+00  0.2125E+02
     -7.288  0.0000E+00  0.2125E+02
     -7.277  0.1023E-13  0.2125E+02
     -7.266  0.8051E-09  0.2125E+02
     -7.255  0.6479E-05  0.2125E+02
     -7.244  0.5359E-02  0.2125E+02
     -7.233  0.4827E+00  0.2126E+02
     -7.223  0.5261E+01  0.2131E+02
     -7.212  0.7884E+01  0.2140E+02
     -7.201  0.1678E+01  0.2142E+02
     -7.190  0.4571E-01  0.2142E+02
     -7.179  0.1408E-03  0.2142E+02
     -7.168  0.4543E-07  0.2142E+02
     -7.158  0.1476E-11  0.2142E+02
     -7.147  0.0000E+00  0.2142E+02
     -7.136  0.0000E+00  0.2142E+02
     -7.125  0.0000E+00  0.2142E+02
     -7.114  0.0000E+00  0.2142E+02
     -7.103  0.0000E+00  0.2142E+02
     -7.092  0.0000E+00  0.2142E+02
     -7.082  0.2557E-14  0.2142E+02
     -7.071  0.2504E-09  0.2142E+02
     -7.060  0.2616E-05  0.2142E+02
     -7.049  0.2796E-02  0.2142E+02
     -7.038  0.3227E+00  0.2142E+02
     -7.027  0.4441E+01  0.2147E+02
     -7.016  0.8300E+01  0.2156E+02
     -7.006  0.2214E+01  0.2158E+02
     -6.995  0.7669E-01  0.2158E+02
     -6.984  0.3040E-03  0.2158E+02
     -6.973  0.1271E-06  0.2158E+02
     -6.962  0.9032E-11  0.2158E+02
     -6.951  0.9361E-07  0.2158E+02
     -6.940  0.2420E-03  0.2158E+02
     -6.930  0.6584E-01  0.2158E+02
     -6.919  0.2043E+01  0.2161E+02
     -6.908  0.8208E+01  0.2170E+02
     -6.897  0.5555E+01  0.2176E+02
     -6.886  0.6910E+01  0.2183E+02