<?xml version="1.0" encoding="ISO-8859-1"?>
<modeling>
 <generator>
  <i name="program" type="string">vasp </i>
  <i name="version" type="string">5.4.4.18Apr17-6-g9f103f2a35  </i>
  <i name="subversion" type="string">(build Jun 20 2017 18:00:50) complex            parallel </i>
  <i name="platform" type="string">LinuxIFC </i>
  <i name="date" type="string">2018 03 16 </i>
  <i name="time" type="string">16:02:16 </i>
 </generator>
 <incar>
  <i type="string" name="SYSTEM"> Generic Input</i>
  <i type="int" name="ISTART">     1</i>
  <i type="string" name="PREC">normal    ! precision level</i>
  <i type="int" name="IALGO">    53</i>
  <i type="string" name="ALGO"> Normal    ! SCF minimisation algorithm</i>
  <i type="int" name="INIWAV">     1</i>
  <i type="int" name="NELM">   200</i>
  <i type="int" name="NELMIN">     2</i>
  <i type="int" name="IBRION">     2</i>
  <i name="EDIFF">      0.00001000</i>
  <i name="EDIFFG">     -0.02000000</i>
  <i type="int" name="NSW">     0</i>
  <i type="int" name="ISIF">     3</i>
  <i type="int" name="IWAVPR">    11</i>
  <i type="int" name="NBLOCK">     1</i>
  <i type="int" name="KBLOCK">    40</i>
  <i name="ENCUT">    400.00000000</i>
  <i type="int" name="NEDOS">  2000</i>
  <i type="int" name="ISMEAR">     0</i>
  <i name="SIGMA">      0.01000000</i>
  <i type="int" name="NWRITE">     2</i>
  <i type="logical" name="LVHAR"> T  </i>
  <i type="int" name="LORBIT">    11</i>
  <i type="logical" name="LASPH"> T  </i>
  <i type="int" name="ICORELEVEL">     1</i>
  <v type="int" name="KPOINT_BSE">    -1     0     0     0</v>
  <i type="int" name="NELM">   200</i>
  <i type="string" name="GGA"> PE        ! PBEsol exchange-correlation</i>
  <i type="logical" name="LASPH"> T  </i>
 </incar>
 <structure name="primitive_cell" >
  <crystal>
   <varray name="basis" >
    <v>       3.34288600       0.00000000       0.00000000 </v>
    <v>       0.00000000      32.60240900       0.00000000 </v>
    <v>       0.00000000       0.00000000       4.37483100 </v>
   </varray>
   <i name="volume">    476.79592902 </i>
   <varray name="rec_basis" >
    <v>       0.29914272       0.00000000       0.00000000 </v>
    <v>       0.00000000       0.03067258       0.00000000 </v>
    <v>       0.00000000       0.00000000       0.22858026 </v>
   </varray>
  </crystal>
  <varray name="positions" >
   <v>       0.00000000       0.30672600      -0.08107600 </v>
   <v>      -0.50000000       0.30672600      -0.41892400 </v>
   <v>       0.00000000       0.37246700       0.08107600 </v>
   <v>      -0.50000000       0.37246700       0.41892400 </v>
   <v>       0.00000000       0.46712900      -0.41892400 </v>
   <v>      -0.50000000       0.46712900      -0.08107600 </v>
   <v>      -0.50000000      -0.46712900       0.08107600 </v>
   <v>       0.00000000      -0.46712900       0.41892400 </v>
   <v>       0.00000000      -0.37246700      -0.08107600 </v>
   <v>      -0.50000000      -0.37246700      -0.41892400 </v>
   <v>       0.00000000      -0.30672600       0.08107600 </v>
   <v>      -0.50000000      -0.30672600       0.41892400 </v>
  </varray>
 </structure>
 <varray name="primitive_index" >
  <v type="int" >        1 </v>
  <v type="int" >        2 </v>
  <v type="int" >        3 </v>
  <v type="int" >        4 </v>
  <v type="int" >        6 </v>
  <v type="int" >        5 </v>
  <v type="int" >        7 </v>
  <v type="int" >        8 </v>
  <v type="int" >        9 </v>
  <v type="int" >       10 </v>
  <v type="int" >       11 </v>
  <v type="int" >       12 </v>
 </varray>
 <kpoints>
  <generation param="Gamma">
   <v type="int" name="divisions">       6        1        4 </v>
   <v name="usershift">      0.00000000       0.00000000       0.00000000 </v>
   <v name="genvec1">      0.16666667       0.00000000       0.00000000 </v>
   <v name="genvec2">      0.00000000       1.00000000       0.00000000 </v>
   <v name="genvec3">      0.00000000       0.00000000       0.25000000 </v>
   <v name="shift">      0.00000000       0.00000000       0.00000000 </v>
  </generation>
  <varray name="kpointlist" >
   <v>       0.00000000       0.00000000       0.00000000 </v>
   <v>       0.16666667       0.00000000       0.00000000 </v>
   <v>       0.33333333       0.00000000       0.00000000 </v>
   <v>       0.50000000       0.00000000       0.00000000 </v>
   <v>       0.00000000       0.00000000       0.25000000 </v>
   <v>       0.16666667       0.00000000       0.25000000 </v>
   <v>       0.33333333       0.00000000       0.25000000 </v>
   <v>       0.50000000       0.00000000       0.25000000 </v>
   <v>       0.00000000       0.00000000       0.50000000 </v>
   <v>       0.16666667       0.00000000       0.50000000 </v>
   <v>       0.33333333       0.00000000       0.50000000 </v>
   <v>       0.50000000       0.00000000       0.50000000 </v>
  </varray>
  <varray name="weights" >
   <v>       0.04166667 </v>
   <v>       0.08333333 </v>
   <v>       0.08333333 </v>
   <v>       0.04166667 </v>
   <v>       0.08333333 </v>
   <v>       0.16666667 </v>
   <v>       0.16666667 </v>
   <v>       0.08333333 </v>
   <v>       0.04166667 </v>
   <v>       0.08333333 </v>
   <v>       0.08333333 </v>
   <v>       0.04166667 </v>
  </varray>
 </kpoints>
 <parameters>
  <separator name="general" >
   <i type="string" name="SYSTEM">Generic Input</i>
   <i type="logical" name="LCOMPAT"> F  </i>
  </separator>
  <separator name="electronic" >
   <i type="string" name="PREC">normal</i>
   <i name="ENMAX">    400.00000000</i>
   <i name="ENAUG">    342.92400000</i>
   <i name="EDIFF">      0.00001000</i>
   <i type="int" name="IALGO">    38</i>
   <i type="int" name="IWAVPR">    11</i>
   <i type="int" name="NBANDS">    40</i>
   <i name="NELECT">     60.00000000</i>
   <i type="int" name="TURBO">     0</i>
   <i type="int" name="IRESTART">     0</i>
   <i type="int" name="NREBOOT">     0</i>
   <i type="int" name="NMIN">     0</i>
   <i name="EREF">      0.00000000</i>
   <separator name="electronic smearing" >
    <i type="int" name="ISMEAR">     0</i>
    <i name="SIGMA">      0.01000000</i>
    <i name="KSPACING">      0.50000000</i>
    <i type="logical" name="KGAMMA"> T  </i>
   </separator>
   <separator name="electronic projectors" >
    <i type="logical" name="LREAL"> F  </i>
    <v name="ROPT">      0.00000000</v>
    <i type="int" name="LMAXPAW">  -100</i>
    <i type="int" name="LMAXMIX">     2</i>
    <i type="logical" name="NLSPLINE"> F  </i>
   </separator>
   <separator name="electronic startup" >
    <i type="int" name="ISTART">     0</i>
    <i type="int" name="ICHARG">     2</i>
    <i type="int" name="INIWAV">     1</i>
   </separator>
   <separator name="electronic spin" >
    <i type="int" name="ISPIN">     1</i>
    <i type="logical" name="LNONCOLLINEAR"> F  </i>
    <v name="MAGMOM">      1.00000000      1.00000000      1.00000000      1.00000000      1.00000000      1.00000000      1.00000000      1.00000000      1.00000000      1.00000000      1.00000000      1.00000000</v>
    <i name="NUPDOWN">     -1.00000000</i>
    <i type="logical" name="LSORBIT"> F  </i>
    <v name="SAXIS">      0.00000000      0.00000000      1.00000000</v>
    <i type="logical" name="LSPIRAL"> F  </i>
    <v name="QSPIRAL">      0.00000000      0.00000000      0.00000000</v>
    <i type="logical" name="LZEROZ"> F  </i>
   </separator>
   <separator name="electronic exchange-correlation" >
    <i type="logical" name="LASPH"> T  </i>
    <i type="logical" name="LMETAGGA"> F  </i>
   </separator>
   <separator name="electronic convergence" >
    <i type="int" name="NELM">   200</i>
    <i type="int" name="NELMDL">     0</i>
    <i type="int" name="NELMIN">     2</i>
    <i name="ENINI">    400.00000000</i>
    <separator name="electronic convergence detail" >
     <i type="logical" name="LDIAG"> T  </i>
     <i type="logical" name="LSUBROT"> F  </i>
     <i name="WEIMIN">      0.00000000</i>
     <i name="EBREAK">      0.00000006</i>
     <i name="DEPER">      0.30000000</i>
     <i type="int" name="NRMM">     4</i>
     <i name="TIME">      0.40000000</i>
    </separator>
   </separator>
   <separator name="electronic mixer" >
    <i name="AMIX">      0.40000000</i>
    <i name="BMIX">      1.00000000</i>
    <i name="AMIN">      0.10000000</i>
    <i name="AMIX_MAG">      1.60000000</i>
    <i name="BMIX_MAG">      1.00000000</i>
    <separator name="electronic mixer details" >
     <i type="int" name="IMIX">     4</i>
     <i type="logical" name="MIXFIRST"> F  </i>
     <i type="int" name="MAXMIX">   -45</i>
     <i name="WC">    100.00000000</i>
     <i type="int" name="INIMIX">     1</i>
     <i type="int" name="MIXPRE">     1</i>
     <i type="int" name="MREMOVE">     5</i>
    </separator>
   </separator>
   <separator name="electronic dipolcorrection" >
    <i type="logical" name="LDIPOL"> F  </i>
    <i type="logical" name="LMONO"> F  </i>
    <i type="int" name="IDIPOL">     0</i>
    <i name="EPSILON">      1.00000000</i>
    <v name="DIPOL">   -100.00000000   -100.00000000   -100.00000000</v>
    <i name="EFIELD">      0.00000000</i>
   </separator>
  </separator>
  <separator name="grids" >
   <i type="int" name="NGX">    16</i>
   <i type="int" name="NGY">   160</i>
   <i type="int" name="NGZ">    24</i>
   <i type="int" name="NGXF">    32</i>
   <i type="int" name="NGYF">   320</i>
   <i type="int" name="NGZF">    48</i>
   <i type="logical" name="ADDGRID"> F  </i>
  </separator>
  <separator name="ionic" >
   <i type="int" name="NSW">     0</i>
   <i type="int" name="IBRION">    -1</i>
   <i type="int" name="MDALGO">     0</i>
   <i type="int" name="ISIF">     3</i>
   <i name="PSTRESS">      0.00000000</i>
   <i name="EDIFFG">     -0.02000000</i>
   <i type="int" name="NFREE">     1</i>
   <i name="POTIM">      0.50000000</i>
   <i name="SMASS">     -3.00000000</i>
   <i name="SCALEE">      1.00000000</i>
  </separator>
  <separator name="ionic md" >
   <i name="TEBEG">      0.00010000</i>
   <i name="TEEND">      0.00010000</i>
   <i type="int" name="NBLOCK">     1</i>
   <i type="int" name="KBLOCK">     1</i>
   <i type="int" name="NPACO">   256</i>
   <i name="APACO">     16.00000000</i>
  </separator>
  <separator name="symmetry" >
   <i type="int" name="ISYM">     2</i>
   <i name="SYMPREC">      0.00001000</i>
  </separator>
  <separator name="dos" >
   <i type="int" name="LORBIT">    11</i>
   <v name="RWIGS">     -1.00000000</v>
   <i type="int" name="NEDOS">  2000</i>
   <i name="EMIN">     10.00000000</i>
   <i name="EMAX">    -10.00000000</i>
   <i name="EFERMI">      0.00000000</i>
  </separator>
  <separator name="writing" >
   <i type="int" name="NWRITE">     2</i>
   <i type="logical" name="LWAVE"> T  </i>
   <i type="logical" name="LDOWNSAMPLE"> F  </i>
   <i type="logical" name="LCHARG"> T  </i>
   <i type="logical" name="LPARD"> F  </i>
   <i type="logical" name="LVTOT"> F  </i>
   <i type="logical" name="LVHAR"> T  </i>
   <i type="logical" name="LELF"> F  </i>
   <i type="logical" name="LOPTICS"> F  </i>
   <v name="STM">      0.00000000      0.00000000      0.00000000      0.00000000      0.00000000      0.00000000      0.00000000</v>
  </separator>
  <separator name="performance" >
   <i type="int" name="NPAR">     4</i>
   <i type="int" name="NSIM">     4</i>
   <i type="int" name="NBLK">    -1</i>
   <i type="logical" name="LPLANE"> T  </i>
   <i type="logical" name="LSCALAPACK"> T  </i>
   <i type="logical" name="LSCAAWARE"> F  </i>
   <i type="logical" name="LSCALU"> F  </i>
   <i type="logical" name="LASYNC"> F  </i>
   <i type="logical" name="LORBITALREAL"> F  </i>
  </separator>
  <separator name="miscellaneous" >
   <i type="int" name="IDIOT">     3</i>
   <i type="int" name="ISPECIAL">     0</i>
   <i type="logical" name="LMUSIC"> F  </i>
   <v name="POMASS">     30.97400000</v>
   <v name="DARWINR">      0.00000000</v>
   <v name="DARWINV">      1.00000000</v>
   <i type="logical" name="LCORR"> T  </i>
  </separator>
  <i type="logical" name="GGA_COMPAT"> T  </i>
  <i type="logical" name="LBERRY"> F  </i>
  <i type="int" name="ICORELEVEL">     1</i>
  <i type="int" name="CLNT">     1</i>
  <i type="int" name="CLN">     1</i>
  <i type="int" name="CLL">     0</i>
  <i name="CLZ">      0.00000000</i>
  <i type="logical" name="LDAU"> F  </i>
  <i type="int" name="I_CONSTRAINED_M">     0</i>
  <separator name="electronic exchange-correlation" >
   <i type="string" name="GGA">PE</i>
   <i type="int" name="VOSKOWN">     0</i>
   <i type="logical" name="LHFCALC"> F  </i>
   <i type="string" name="PRECFOCK"></i>
   <i type="logical" name="LSYMGRAD"> F  </i>
   <i type="logical" name="LHFONE"> F  </i>
   <i type="logical" name="LRHFCALC"> F  </i>
   <i type="logical" name="LTHOMAS"> F  </i>
   <i type="logical" name="LMODELHF"> F  </i>
   <i name="ENCUT4O">     -1.00000000</i>
   <i type="int" name="EXXOEP">     0</i>
   <i type="int" name="FOURORBIT">     0</i>
   <i name="AEXX">      0.00000000</i>
   <i name="HFALPHA">      0.00000000</i>
   <i name="MCALPHA">      0.00000000</i>
   <i name="ALDAX">      1.00000000</i>
   <i name="AGGAX">      1.00000000</i>
   <i name="ALDAC">      1.00000000</i>
   <i name="AGGAC">      1.00000000</i>
   <i type="int" name="NKREDX">     1</i>
   <i type="int" name="NKREDY">     1</i>
   <i type="int" name="NKREDZ">     1</i>
   <i type="logical" name="SHIFTRED"> F  </i>
   <i type="logical" name="ODDONLY"> F  </i>
   <i type="logical" name="EVENONLY"> F  </i>
   <i type="int" name="LMAXFOCK">     0</i>
   <i type="int" name="NMAXFOCKAE">     0</i>
   <i type="logical" name="LFOCKAEDFT"> F  </i>
   <i name="HFSCREEN">      0.00000000</i>
   <i name="HFSCREENC">      0.00000000</i>
   <i type="int" name="NBANDSGWLOW">     0</i>
  </separator>
  <separator name="vdW DFT" >
   <i type="logical" name="LUSE_VDW"> F  </i>
   <i name="Zab_VDW">     -0.84910000</i>
   <i name="PARAM1">      0.12340000</i>
   <i name="PARAM2">      1.00000000</i>
   <i name="PARAM3">      0.00000000</i>
  </separator>
  <separator name="model GW" >
   <i type="int" name="MODEL_GW">     0</i>
   <i name="MODEL_EPS0">     23.83979645</i>
   <i name="MODEL_ALPHA">      1.00000000</i>
  </separator>
  <separator name="linear response parameters" >
   <i type="logical" name="LEPSILON"> F  </i>
   <i type="logical" name="LRPA"> F  </i>
   <i type="logical" name="LNABLA"> F  </i>
   <i type="logical" name="LVEL"> F  </i>
   <i type="int" name="KINTER">     0</i>
   <i name="CSHIFT">      0.10000000</i>
   <i name="OMEGAMAX">     -1.00000000</i>
   <i name="DEG_THRESHOLD">      0.00200000</i>
   <i name="RTIME">     -0.10000000</i>
   <i name="WPLASMAI">      0.00000000</i>
   <v name="DFIELD">      0.00000000      0.00000000      0.00000000</v>
   <v name="WPLASMA">      0.00000000      0.00000000      0.00000000      0.00000000      0.00000000      0.00000000      0.00000000      0.00000000      0.00000000</v>
  </separator>
  <separator name="orbital magnetization" >
   <i type="logical" name="NUCIND"> F  </i>
   <v name="MAGPOS">      0.00000000      0.00000000      0.00000000</v>
   <i type="logical" name="LNICSALL"> T  </i>
   <i type="logical" name="ORBITALMAG"> F  </i>
   <i type="logical" name="LMAGBLOCH"> F  </i>
   <i type="logical" name="LCHIMAG"> F  </i>
   <i type="logical" name="LGAUGE"> T  </i>
   <i type="int" name="MAGATOM">     0</i>
   <v name="MAGDIPOL">      0.00000000      0.00000000      0.00000000</v>
   <v name="AVECCONST">      0.00000000      0.00000000      0.00000000</v>
  </separator>
  <separator name="response functions" >
   <i type="logical" name="LADDER"> F  </i>
   <i type="logical" name="LRPAFORCE"> F  </i>
   <i type="logical" name="LFXC"> F  </i>
   <i type="logical" name="LHARTREE"> T  </i>
   <i type="int" name="IBSE">     0</i>
   <v type="int" name="KPOINT">    -1     0     0     0</v>
   <i type="logical" name="LTCTE"> F  </i>
   <i type="logical" name="LTETE"> F  </i>
   <i type="logical" name="LTRIPLET"> F  </i>
   <i type="logical" name="LFXCEPS"> F  </i>
   <i type="logical" name="LFXHEG"> F  </i>
   <i type="int" name="NATURALO">     2</i>
   <i type="logical" name="L2ORDER"> F  </i>
   <i type="logical" name="LMP2LT"> F  </i>
   <i type="logical" name="LUSEW"> F  </i>
   <i name="ENCUTGW">     -2.00000000</i>
   <i name="ENCUTGWSOFT">     -2.00000000</i>
   <i name="ENCUTLF">     -1.00000000</i>
   <i type="int" name="LMAXMP2">    -1</i>
   <i name="SCISSOR">      0.00000000</i>
   <i type="int" name="NOMEGA">     0</i>
   <i type="int" name="NOMEGAR">     0</i>
   <i type="int" name="NBANDSGW">    -1</i>
   <i type="int" name="NBANDSO">    -1</i>
   <i type="int" name="NBANDSV">    -1</i>
   <i type="int" name="NELM">   200</i>
   <i type="int" name="NELMHF">     1</i>
   <i type="int" name="DIM">     3</i>
   <i type="int" name="ANTIRES">     0</i>
   <i name="OMEGAMAX">    -30.00000000</i>
   <i name="OMEGAMIN">    -30.00000000</i>
   <i name="OMEGATL">   -200.00000000</i>
   <i type="int" name="OMEGAGRID">   140</i>
   <i name="CSHIFT">     -0.10000000</i>
   <i type="logical" name="SELFENERGY"> F  </i>
   <i type="logical" name="LSPECTRAL"> F  </i>
   <i type="logical" name="LSPECTRALGW"> F  </i>
   <i type="logical" name="LSINGLES"> F  </i>
   <i type="logical" name="LFERMIGW"> F  </i>
   <i type="logical" name="ODDONLYGW"> F  </i>
   <i type="logical" name="EVENONLYGW"> F  </i>
   <i type="int" name="NKREDLFX">     1</i>
   <i type="int" name="NKREDLFY">     1</i>
   <i type="int" name="NKREDLFZ">     1</i>
   <i type="int" name="MAXMEM">  2800</i>
   <i type="int" name="TELESCOPE">     0</i>
   <i type="int" name="TAUPAR">     1</i>
   <i type="int" name="OMEGAPAR">    -1</i>
   <i name="LAMBDA">      1.00000000</i>
  </separator>
  <separator name="External order field" >
   <i name="OFIELD_KAPPA">      0.00000000</i>
   <v name="OFIELD_K">      0.00000000      0.00000000      0.00000000</v>
   <i name="OFIELD_Q6_NEAR">      0.00000000</i>
   <i name="OFIELD_Q6_FAR">      0.00000000</i>
   <i name="OFIELD_A">      0.00000000</i>
  </separator>
 </parameters>
 <atominfo>
  <atoms>      12 </atoms>
  <types>       1 </types>
  <array name="atoms" >
   <dimension dim="1">ion</dimension>
   <field type="string">element</field>
   <field type="int">atomtype</field>
   <set>
    <rc><c>P </c><c>   1</c></rc>
    <rc><c>P </c><c>   1</c></rc>
    <rc><c>P </c><c>   1</c></rc>
    <rc><c>P </c><c>   1</c></rc>
    <rc><c>P </c><c>   1</c></rc>
    <rc><c>P </c><c>   1</c></rc>
    <rc><c>P </c><c>   1</c></rc>
    <rc><c>P </c><c>   1</c></rc>
    <rc><c>P </c><c>   1</c></rc>
    <rc><c>P </c><c>   1</c></rc>
    <rc><c>P </c><c>   1</c></rc>
    <rc><c>P </c><c>   1</c></rc>
   </set>
  </array>
  <array name="atomtypes" >
   <dimension dim="1">type</dimension>
   <field type="int">atomspertype</field>
   <field type="string">element</field>
   <field>mass</field>
   <field>valence</field>
   <field type="string">pseudopotential</field>
   <set>
    <rc><c>  12</c><c>P </c><c>     30.97400000</c><c>      5.00000000</c><c>  PAW_PBE P 06Sep2000                   </c></rc>
   </set>
  </array>
 </atominfo>
 <structure name="initialpos" >
  <crystal>
   <varray name="basis" >
    <v>       3.34288600       0.00000000       0.00000000 </v>
    <v>       0.00000000      32.60240900       0.00000000 </v>
    <v>       0.00000000       0.00000000       4.37483100 </v>
   </varray>
   <i name="volume">    476.79592902 </i>
   <varray name="rec_basis" >
    <v>       0.29914272       0.00000000       0.00000000 </v>
    <v>       0.00000000       0.03067258       0.00000000 </v>
    <v>       0.00000000       0.00000000       0.22858026 </v>
   </varray>
  </crystal>
  <varray name="positions" >
   <v>       0.00000000       0.30672600       0.91892400 </v>
   <v>       0.50000000       0.30672600       0.58107600 </v>
   <v>       0.00000000       0.37246700       0.08107600 </v>
   <v>       0.50000000       0.37246700       0.41892400 </v>
   <v>       0.50000000       0.46712900       0.91892400 </v>
   <v>       0.00000000       0.46712900       0.58107600 </v>
   <v>       0.50000000       0.53287100       0.08107600 </v>
   <v>       0.00000000       0.53287100       0.41892400 </v>
   <v>       0.00000000       0.62753300       0.91892400 </v>
   <v>       0.50000000       0.62753300       0.58107600 </v>
   <v>       0.00000000       0.69327400       0.08107600 </v>
   <v>       0.50000000       0.69327400       0.41892400 </v>
  </varray>
 </structure>
 <calculation>
  <scstep>
   <time name="dav">    0.49    0.49</time>
   <time name="total">    0.59    0.59</time>
   <energy>
    <i name="alphaZ">     30.28014394 </i>
    <i name="ewald">  14973.24208224 </i>
    <i name="hartreedc"> -16928.93300519 </i>
    <i name="XCdc">     40.33410248 </i>
    <i name="pawpsdc">   1677.12035881 </i>
    <i name="pawaedc">  -1579.18296132 </i>
    <i name="eentropy">     -0.00000628 </i>
    <i name="bandstr">     11.11639936 </i>
    <i name="atom">   2112.48864025 </i>
    <i name="e_fr_energy">    336.46575428 </i>
    <i name="e_wo_entrp">    336.46576057 </i>
    <i name="e_0_energy">    336.46575742 </i>
   </energy>
  </scstep>
  <scstep>
   <time name="dav">    0.60    0.60</time>
   <time name="total">    0.60    0.60</time>
   <energy>
    <i name="e_fr_energy">    -26.20537511 </i>
    <i name="e_wo_entrp">    -26.20537511 </i>
    <i name="e_0_energy">    -26.20537511 </i>
   </energy>
  </scstep>
  <scstep>
   <time name="dav">    0.53    0.53</time>
   <time name="total">    0.53    0.53</time>
   <energy>
    <i name="e_fr_energy">    -63.33978642 </i>
    <i name="e_wo_entrp">    -63.33978642 </i>
    <i name="e_0_energy">    -63.33978642 </i>
   </energy>
  </scstep>
  <scstep>
   <time name="dav">    0.65    0.65</time>
   <time name="total">    0.65    0.65</time>
   <energy>
    <i name="e_fr_energy">    -64.77274545 </i>
    <i name="e_wo_entrp">    -64.77274545 </i>
    <i name="e_0_energy">    -64.77274545 </i>
   </energy>
  </scstep>
  <scstep>
   <time name="dav">    0.63    0.63</time>
   <time name="total">    0.66    0.66</time>
   <energy>
    <i name="e_fr_energy">    -64.81027034 </i>
    <i name="e_wo_entrp">    -64.81027034 </i>
    <i name="e_0_energy">    -64.81027034 </i>
   </energy>
  </scstep>
  <scstep>
   <time name="dav">    0.58    0.58</time>
   <time name="total">    0.68    0.68</time>
   <energy>
    <i name="e_fr_energy">    -64.48586501 </i>
    <i name="e_wo_entrp">    -64.48586501 </i>
    <i name="e_0_energy">    -64.48586501 </i>
   </energy>
  </scstep>
  <scstep>
   <time name="dav">    0.55    0.55</time>
   <time name="total">    0.65    0.65</time>
   <energy>
    <i name="e_fr_energy">    -64.33746344 </i>
    <i name="e_wo_entrp">    -64.33746318 </i>
    <i name="e_0_energy">    -64.33746331 </i>
   </energy>
  </scstep>
  <scstep>
   <time name="dav">    0.57    0.57</time>
   <time name="total">    0.68    0.68</time>
   <energy>
    <i name="e_fr_energy">    -64.33719722 </i>
    <i name="e_wo_entrp">    -64.33719716 </i>
    <i name="e_0_energy">    -64.33719719 </i>
   </energy>
  </scstep>
  <scstep>
   <time name="dav">    0.63    0.63</time>
   <time name="total">    0.74    0.74</time>
   <energy>
    <i name="e_fr_energy">    -64.33717689 </i>
    <i name="e_wo_entrp">    -64.33717683 </i>
    <i name="e_0_energy">    -64.33717686 </i>
   </energy>
  </scstep>
  <scstep>
   <time name="dav">    0.57    0.57</time>
   <time name="total">    0.71    0.71</time>
   <energy>
    <i name="e_fr_energy">    -64.33694670 </i>
    <i name="e_wo_entrp">    -64.33694667 </i>
    <i name="e_0_energy">    -64.33694668 </i>
   </energy>
  </scstep>
  <scstep>
   <time name="dav">    0.57    0.57</time>
   <time name="total">    0.68    0.68</time>
   <energy>
    <i name="e_fr_energy">    -64.33670951 </i>
    <i name="e_wo_entrp">    -64.33670946 </i>
    <i name="e_0_energy">    -64.33670949 </i>
   </energy>
  </scstep>
  <scstep>
   <time name="dav">    0.57    0.57</time>
   <time name="total">    0.67    0.68</time>
   <energy>
    <i name="e_fr_energy">    -64.33677114 </i>
    <i name="e_wo_entrp">    -64.33677108 </i>
    <i name="e_0_energy">    -64.33677111 </i>
   </energy>
  </scstep>
  <scstep>
   <time name="dav">    0.53    0.53</time>
   <time name="total">    0.63    0.63</time>
   <energy>
    <i name="e_fr_energy">    -64.33698545 </i>
    <i name="e_wo_entrp">    -64.33698538 </i>
    <i name="e_0_energy">    -64.33698541 </i>
   </energy>
  </scstep>
  <scstep>
   <time name="dav">    0.51    0.52</time>
   <time name="total">    0.62    0.62</time>
   <energy>
    <i name="e_fr_energy">    -64.33714375 </i>
    <i name="e_wo_entrp">    -64.33714368 </i>
    <i name="e_0_energy">    -64.33714372 </i>
   </energy>
  </scstep>
  <scstep>
   <time name="dav">    0.41    0.42</time>
   <time name="total">    0.52    0.52</time>
   <energy>
    <i name="e_fr_energy">    -64.33717672 </i>
    <i name="e_wo_entrp">    -64.33717665 </i>
    <i name="e_0_energy">    -64.33717668 </i>
   </energy>
  </scstep>
  <scstep>
   <time name="dav">    0.47    0.47</time>
   <time name="total">    0.58    0.58</time>
   <energy>
    <i name="e_fr_energy">    -64.33742648 </i>
    <i name="e_wo_entrp">    -64.33742641 </i>
    <i name="e_0_energy">    -64.33742644 </i>
   </energy>
  </scstep>
  <scstep>
   <time name="dav">    0.44    0.44</time>
   <time name="total">    0.55    0.55</time>
   <energy>
    <i name="e_fr_energy">    -64.33745296 </i>
    <i name="e_wo_entrp">    -64.33745289 </i>
    <i name="e_0_energy">    -64.33745292 </i>
   </energy>
  </scstep>
  <scstep>
   <time name="dav">    0.40    0.40</time>
   <time name="total">    0.52    0.53</time>
   <energy>
    <i name="e_fr_energy">    -64.33746313 </i>
    <i name="e_wo_entrp">    -64.33746306 </i>
    <i name="e_0_energy">    -64.33746310 </i>
   </energy>
  </scstep>
  <scstep>
   <time name="dav">    0.44    0.44</time>
   <time name="total">    0.54    0.54</time>
   <energy>
    <i name="e_fr_energy">    -64.33751230 </i>
    <i name="e_wo_entrp">    -64.33751223 </i>
    <i name="e_0_energy">    -64.33751226 </i>
   </energy>
  </scstep>
  <scstep>
   <time name="dav">    0.40    0.40</time>
   <time name="total">    0.56    0.56</time>
   <energy>
    <i name="alphaZ">     30.28014394 </i>
    <i name="ewald">  14973.24208224 </i>
    <i name="hartreedc"> -16968.22270303 </i>
    <i name="XCdc">     43.13571724 </i>
    <i name="pawpsdc">   6287.39779777 </i>
    <i name="pawaedc">  -6190.37876379 </i>
    <i name="eentropy">     -0.00000007 </i>
    <i name="bandstr">   -352.28043049 </i>
    <i name="atom">   2112.48864025 </i>
    <i name="e_fr_energy">    -64.33751596 </i>
    <i name="e_wo_entrp">    -64.33751589 </i>
    <i name="e_0_energy">    -64.33751593 </i>
   </energy>
  </scstep>
  <structure>
   <crystal>
    <varray name="basis" >
     <v>       3.34288600       0.00000000       0.00000000 </v>
     <v>       0.00000000      32.60240900       0.00000000 </v>
     <v>       0.00000000       0.00000000       4.37483100 </v>
    </varray>
    <i name="volume">    476.79592902 </i>
    <varray name="rec_basis" >
     <v>       0.29914272       0.00000000       0.00000000 </v>
     <v>       0.00000000       0.03067258       0.00000000 </v>
     <v>       0.00000000       0.00000000       0.22858026 </v>
    </varray>
   </crystal>
   <varray name="positions" >
    <v>       0.00000000       0.30672600       0.91892400 </v>
    <v>       0.50000000       0.30672600       0.58107600 </v>
    <v>       0.00000000       0.37246700       0.08107600 </v>
    <v>       0.50000000       0.37246700       0.41892400 </v>
    <v>       0.50000000       0.46712900       0.91892400 </v>
    <v>       0.00000000       0.46712900       0.58107600 </v>
    <v>       0.50000000       0.53287100       0.08107600 </v>
    <v>       0.00000000       0.53287100       0.41892400 </v>
    <v>       0.00000000       0.62753300       0.91892400 </v>
    <v>       0.50000000       0.62753300       0.58107600 </v>
    <v>       0.00000000       0.69327400       0.08107600 </v>
    <v>       0.50000000       0.69327400       0.41892400 </v>
   </varray>
  </structure>
  <varray name="forces" >
   <v>      -0.00000000       0.07989859      -0.03655556 </v>
   <v>      -0.00000000       0.07989859       0.03655556 </v>
   <v>      -0.00000000      -0.07460709      -0.02349985 </v>
   <v>       0.00000000      -0.07460709       0.02349985 </v>
   <v>      -0.00000000       0.03576448       0.00452166 </v>
   <v>      -0.00000000       0.03576448      -0.00452166 </v>
   <v>      -0.00000000      -0.03576448      -0.00452166 </v>
   <v>      -0.00000000      -0.03576448       0.00452166 </v>
   <v>       0.00000000       0.07460709       0.02349985 </v>
   <v>      -0.00000000       0.07460709      -0.02349985 </v>
   <v>       0.00000000      -0.07989859       0.03655556 </v>
   <v>      -0.00000000      -0.07989859      -0.03655556 </v>
  </varray>
  <varray name="stress" >
   <v>       1.08216395       0.00000000       0.00000000 </v>
   <v>       0.00000000      -3.11317443       0.00000000 </v>
   <v>       0.00000000       0.00000000       4.25091960 </v>
  </varray>
  <energy>
   <i name="e_fr_energy">    -66.51145548 </i>
   <i name="e_wo_entrp">    -66.51145545 </i>
   <i name="e_0_energy">     -0.00000007 </i>
  </energy>
  <time name="totalsc">   13.85   13.91</time>
  <eigenvalues>
   <array>
    <dimension dim="1">band</dimension>
    <dimension dim="2">kpoint</dimension>
    <dimension dim="3">spin</dimension>
    <field>eigene</field>
    <field>occ</field>
    <set>
     <set comment="spin 1">
      <set comment="kpoint 1">
       <r>  -14.8538    1.0000 </r>
       <r>  -14.7331    1.0000 </r>
       <r>  -14.6647    1.0000 </r>
       <r>  -12.3727    1.0000 </r>
       <r>  -12.1265    1.0000 </r>
       <r>  -11.9470    1.0000 </r>
       <r>   -8.6057    1.0000 </r>
       <r>   -8.5210    1.0000 </r>
       <r>   -8.4910    1.0000 </r>
       <r>   -5.9234    1.0000 </r>
       <r>   -5.5444    1.0000 </r>
       <r>   -5.1262    1.0000 </r>
       <r>   -4.5041    1.0000 </r>
       <r>   -4.5041    1.0000 </r>
       <r>   -4.1862    1.0000 </r>
       <r>   -4.1421    1.0000 </r>
       <r>   -3.9949    1.0000 </r>
       <r>   -3.9207    1.0000 </r>
       <r>   -3.3930    1.0000 </r>
       <r>   -3.2918    1.0000 </r>
       <r>   -3.2422    1.0000 </r>
       <r>   -1.8790    1.0000 </r>
       <r>   -1.7356    1.0000 </r>
       <r>   -1.6236    1.0000 </r>
       <r>   -1.5882    1.0000 </r>
       <r>   -1.5034    1.0000 </r>
       <r>   -1.1069    1.0000 </r>
       <r>   -0.2487    1.0000 </r>
       <r>    0.3555    1.0000 </r>
       <r>    0.9107    1.0000 </r>
       <r>    0.9701    0.0000 </r>
       <r>    1.4979    0.0000 </r>
       <r>    1.5235    0.0000 </r>
       <r>    1.6981    0.0000 </r>
       <r>    1.7059    0.0000 </r>
       <r>    1.8616    0.0000 </r>
       <r>    2.7308    0.0000 </r>
       <r>    2.9016    0.0000 </r>
       <r>    2.9722    0.0000 </r>
       <r>    3.6996    0.0000 </r>
      </set>
      <set comment="kpoint 2">
       <r>  -14.5303    1.0000 </r>
       <r>  -14.4108    1.0000 </r>
       <r>  -14.3436    1.0000 </r>
       <r>  -12.0360    1.0000 </r>
       <r>  -11.7912    1.0000 </r>
       <r>  -11.6128    1.0000 </r>
       <r>   -8.8986    1.0000 </r>
       <r>   -8.8368    1.0000 </r>
       <r>   -8.8308    1.0000 </r>
       <r>   -5.6504    1.0000 </r>
       <r>   -5.2790    1.0000 </r>
       <r>   -4.9717    1.0000 </r>
       <r>   -4.8901    1.0000 </r>
       <r>   -4.8839    1.0000 </r>
       <r>   -4.8521    1.0000 </r>
       <r>   -4.4276    1.0000 </r>
       <r>   -4.3543    1.0000 </r>
       <r>   -4.3433    1.0000 </r>
       <r>   -4.2180    1.0000 </r>
       <r>   -3.8734    1.0000 </r>
       <r>   -3.7294    1.0000 </r>
       <r>   -2.6608    1.0000 </r>
       <r>   -2.5100    1.0000 </r>
       <r>   -2.3449    1.0000 </r>
       <r>   -1.7409    1.0000 </r>
       <r>   -1.4693    1.0000 </r>
       <r>   -0.9669    1.0000 </r>
       <r>   -0.2127    1.0000 </r>
       <r>    0.1880    1.0000 </r>
       <r>    0.4581    1.0000 </r>
       <r>    1.2534    0.0000 </r>
       <r>    1.6581    0.0000 </r>
       <r>    1.8823    0.0000 </r>
       <r>    2.3399    0.0000 </r>
       <r>    2.5520    0.0000 </r>
       <r>    2.5762    0.0000 </r>
       <r>    3.7506    0.0000 </r>
       <r>    3.8765    0.0000 </r>
       <r>    3.9809    0.0000 </r>
       <r>    4.3029    0.0000 </r>
      </set>
      <set comment="kpoint 3">
       <r>  -13.5772    1.0000 </r>
       <r>  -13.4618    1.0000 </r>
       <r>  -13.3990    1.0000 </r>
       <r>  -11.0344    1.0000 </r>
       <r>  -10.7943    1.0000 </r>
       <r>  -10.6196    1.0000 </r>
       <r>  -10.2409    1.0000 </r>
       <r>  -10.1611    1.0000 </r>
       <r>  -10.1363    1.0000 </r>
       <r>   -7.2204    1.0000 </r>
       <r>   -7.0238    1.0000 </r>
       <r>   -6.8859    1.0000 </r>
       <r>   -4.9297    1.0000 </r>
       <r>   -4.9051    1.0000 </r>
       <r>   -4.8483    1.0000 </r>
       <r>   -4.8391    1.0000 </r>
       <r>   -4.6040    1.0000 </r>
       <r>   -4.3148    1.0000 </r>
       <r>   -3.4251    1.0000 </r>
       <r>   -3.1557    1.0000 </r>
       <r>   -3.0328    1.0000 </r>
       <r>   -2.6847    1.0000 </r>
       <r>   -2.3949    1.0000 </r>
       <r>   -2.1608    1.0000 </r>
       <r>   -1.7898    1.0000 </r>
       <r>   -1.5204    1.0000 </r>
       <r>   -1.1890    1.0000 </r>
       <r>   -0.8923    1.0000 </r>
       <r>   -0.7520    1.0000 </r>
       <r>   -0.6887    1.0000 </r>
       <r>    1.1119    0.0000 </r>
       <r>    1.1734    0.0000 </r>
       <r>    1.4352    0.0000 </r>
       <r>    2.0744    0.0000 </r>
       <r>    2.2859    0.0000 </r>
       <r>    2.6036    0.0000 </r>
       <r>    2.6468    0.0000 </r>
       <r>    2.6627    0.0000 </r>
       <r>    2.6703    0.0000 </r>
       <r>    2.9515    0.0000 </r>
      </set>
      <set comment="kpoint 4">
       <r>  -12.0667    1.0000 </r>
       <r>  -12.0667    1.0000 </r>
       <r>  -11.9612    1.0000 </r>
       <r>  -11.9612    1.0000 </r>
       <r>  -11.9091    1.0000 </r>
       <r>  -11.9091    1.0000 </r>
       <r>   -9.3990    1.0000 </r>
       <r>   -9.3990    1.0000 </r>
       <r>   -9.1699    1.0000 </r>
       <r>   -9.1699    1.0000 </r>
       <r>   -9.0041    1.0000 </r>
       <r>   -9.0041    1.0000 </r>
       <r>   -4.4688    1.0000 </r>
       <r>   -4.4688    1.0000 </r>
       <r>   -4.3340    1.0000 </r>
       <r>   -4.3340    1.0000 </r>
       <r>   -4.2886    1.0000 </r>
       <r>   -4.2886    1.0000 </r>
       <r>   -2.4666    1.0000 </r>
       <r>   -2.4666    1.0000 </r>
       <r>   -2.3925    1.0000 </r>
       <r>   -2.3925    1.0000 </r>
       <r>   -2.3921    1.0000 </r>
       <r>   -2.3921    1.0000 </r>
       <r>   -2.0097    1.0000 </r>
       <r>   -2.0097    1.0000 </r>
       <r>   -1.7387    1.0000 </r>
       <r>   -1.7387    1.0000 </r>
       <r>   -1.4867    1.0000 </r>
       <r>   -1.4867    1.0000 </r>
       <r>    1.6199    0.0000 </r>
       <r>    1.6199    0.0000 </r>
       <r>    1.6327    0.0000 </r>
       <r>    1.6327    0.0000 </r>
       <r>    1.7146    0.0000 </r>
       <r>    1.7146    0.0000 </r>
       <r>    2.1559    0.0000 </r>
       <r>    2.1560    0.0000 </r>
       <r>    2.1926    0.0000 </r>
       <r>    2.1928    0.0000 </r>
      </set>
      <set comment="kpoint 5">
       <r>  -14.5024    1.0000 </r>
       <r>  -14.3889    1.0000 </r>
       <r>  -14.3282    1.0000 </r>
       <r>  -12.5952    1.0000 </r>
       <r>  -12.4609    1.0000 </r>
       <r>  -12.4005    1.0000 </r>
       <r>   -9.0049    1.0000 </r>
       <r>   -8.8477    1.0000 </r>
       <r>   -8.7254    1.0000 </r>
       <r>   -6.9110    1.0000 </r>
       <r>   -6.6378    1.0000 </r>
       <r>   -6.4702    1.0000 </r>
       <r>   -4.5478    1.0000 </r>
       <r>   -4.0366    1.0000 </r>
       <r>   -3.3747    1.0000 </r>
       <r>   -3.1158    1.0000 </r>
       <r>   -3.0624    1.0000 </r>
       <r>   -3.0230    1.0000 </r>
       <r>   -2.9823    1.0000 </r>
       <r>   -2.7175    1.0000 </r>
       <r>   -2.7165    1.0000 </r>
       <r>   -1.8641    1.0000 </r>
       <r>   -1.7631    1.0000 </r>
       <r>   -1.7324    1.0000 </r>
       <r>   -1.7247    1.0000 </r>
       <r>   -1.0735    1.0000 </r>
       <r>   -0.4249    1.0000 </r>
       <r>   -0.2663    1.0000 </r>
       <r>   -0.2033    1.0000 </r>
       <r>   -0.0259    1.0000 </r>
       <r>    1.6804    0.0000 </r>
       <r>    2.0070    0.0000 </r>
       <r>    2.1148    0.0000 </r>
       <r>    2.2078    0.0000 </r>
       <r>    2.2582    0.0000 </r>
       <r>    2.2616    0.0000 </r>
       <r>    2.3691    0.0000 </r>
       <r>    2.7098    0.0000 </r>
       <r>    3.2560    0.0000 </r>
       <r>    3.3079    0.0000 </r>
      </set>
      <set comment="kpoint 6">
       <r>  -14.1836    1.0000 </r>
       <r>  -14.0713    1.0000 </r>
       <r>  -14.0119    1.0000 </r>
       <r>  -12.2793    1.0000 </r>
       <r>  -12.1494    1.0000 </r>
       <r>  -12.0931    1.0000 </r>
       <r>   -9.0386    1.0000 </r>
       <r>   -8.8859    1.0000 </r>
       <r>   -8.7729    1.0000 </r>
       <r>   -6.7951    1.0000 </r>
       <r>   -6.5651    1.0000 </r>
       <r>   -6.4187    1.0000 </r>
       <r>   -4.9850    1.0000 </r>
       <r>   -4.8440    1.0000 </r>
       <r>   -4.7153    1.0000 </r>
       <r>   -4.5105    1.0000 </r>
       <r>   -4.0364    1.0000 </r>
       <r>   -3.7226    1.0000 </r>
       <r>   -3.3121    1.0000 </r>
       <r>   -3.1964    1.0000 </r>
       <r>   -2.9129    1.0000 </r>
       <r>   -2.3347    1.0000 </r>
       <r>   -2.1639    1.0000 </r>
       <r>   -2.1423    1.0000 </r>
       <r>   -1.4979    1.0000 </r>
       <r>   -0.9503    1.0000 </r>
       <r>   -0.8598    1.0000 </r>
       <r>   -0.7294    1.0000 </r>
       <r>   -0.4593    1.0000 </r>
       <r>   -0.4110    1.0000 </r>
       <r>    2.0288    0.0000 </r>
       <r>    2.3137    0.0000 </r>
       <r>    2.5892    0.0000 </r>
       <r>    2.8645    0.0000 </r>
       <r>    3.0147    0.0000 </r>
       <r>    3.0666    0.0000 </r>
       <r>    3.3747    0.0000 </r>
       <r>    3.4990    0.0000 </r>
       <r>    3.6091    0.0000 </r>
       <r>    4.3225    0.0000 </r>
      </set>
      <set comment="kpoint 7">
       <r>  -13.2525    1.0000 </r>
       <r>  -13.1449    1.0000 </r>
       <r>  -13.0903    1.0000 </r>
       <r>  -11.4359    1.0000 </r>
       <r>  -11.3331    1.0000 </r>
       <r>  -11.3003    1.0000 </r>
       <r>   -9.7492    1.0000 </r>
       <r>   -9.5886    1.0000 </r>
       <r>   -9.4793    1.0000 </r>
       <r>   -7.5232    1.0000 </r>
       <r>   -7.4355    1.0000 </r>
       <r>   -7.4150    1.0000 </r>
       <r>   -5.8319    1.0000 </r>
       <r>   -5.6638    1.0000 </r>
       <r>   -5.5307    1.0000 </r>
       <r>   -4.7965    1.0000 </r>
       <r>   -4.7517    1.0000 </r>
       <r>   -4.6766    1.0000 </r>
       <r>   -3.3906    1.0000 </r>
       <r>   -3.3095    1.0000 </r>
       <r>   -3.1762    1.0000 </r>
       <r>   -2.5114    1.0000 </r>
       <r>   -2.3669    1.0000 </r>
       <r>   -2.3625    1.0000 </r>
       <r>   -2.2348    1.0000 </r>
       <r>   -1.8465    1.0000 </r>
       <r>   -1.3290    1.0000 </r>
       <r>   -0.9586    1.0000 </r>
       <r>   -0.6584    1.0000 </r>
       <r>   -0.6228    1.0000 </r>
       <r>    1.7046    0.0000 </r>
       <r>    1.8328    0.0000 </r>
       <r>    2.0279    0.0000 </r>
       <r>    2.5160    0.0000 </r>
       <r>    2.7063    0.0000 </r>
       <r>    2.9625    0.0000 </r>
       <r>    3.1536    0.0000 </r>
       <r>    3.3314    0.0000 </r>
       <r>    3.3734    0.0000 </r>
       <r>    3.8752    0.0000 </r>
      </set>
      <set comment="kpoint 8">
       <r>  -11.8536    1.0000 </r>
       <r>  -11.8536    1.0000 </r>
       <r>  -11.7612    1.0000 </r>
       <r>  -11.7612    1.0000 </r>
       <r>  -11.7232    1.0000 </r>
       <r>  -11.7232    1.0000 </r>
       <r>   -9.4299    1.0000 </r>
       <r>   -9.4299    1.0000 </r>
       <r>   -9.2717    1.0000 </r>
       <r>   -9.2717    1.0000 </r>
       <r>   -9.1807    1.0000 </r>
       <r>   -9.1807    1.0000 </r>
       <r>   -5.0166    1.0000 </r>
       <r>   -5.0166    1.0000 </r>
       <r>   -4.8266    1.0000 </r>
       <r>   -4.8266    1.0000 </r>
       <r>   -4.6751    1.0000 </r>
       <r>   -4.6751    1.0000 </r>
       <r>   -3.6854    1.0000 </r>
       <r>   -3.6854    1.0000 </r>
       <r>   -3.4407    1.0000 </r>
       <r>   -3.4407    1.0000 </r>
       <r>   -3.3078    1.0000 </r>
       <r>   -3.3078    1.0000 </r>
       <r>   -1.5482    1.0000 </r>
       <r>   -1.5482    1.0000 </r>
       <r>   -1.2043    1.0000 </r>
       <r>   -1.2043    1.0000 </r>
       <r>   -0.9087    1.0000 </r>
       <r>   -0.9087    1.0000 </r>
       <r>    2.0064    0.0000 </r>
       <r>    2.0064    0.0000 </r>
       <r>    2.3094    0.0000 </r>
       <r>    2.3094    0.0000 </r>
       <r>    2.4561    0.0000 </r>
       <r>    2.4561    0.0000 </r>
       <r>    3.1810    0.0000 </r>
       <r>    3.1810    0.0000 </r>
       <r>    3.4051    0.0000 </r>
       <r>    3.4051    0.0000 </r>
      </set>
      <set comment="kpoint 9">
       <r>  -13.5461    1.0000 </r>
       <r>  -13.5461    1.0000 </r>
       <r>  -13.4758    1.0000 </r>
       <r>  -13.4758    1.0000 </r>
       <r>  -13.4297    1.0000 </r>
       <r>  -13.4297    1.0000 </r>
       <r>   -8.5701    1.0000 </r>
       <r>   -8.5701    1.0000 </r>
       <r>   -8.2533    1.0000 </r>
       <r>   -8.2533    1.0000 </r>
       <r>   -7.9800    1.0000 </r>
       <r>   -7.9800    1.0000 </r>
       <r>   -3.5901    1.0000 </r>
       <r>   -3.5901    1.0000 </r>
       <r>   -2.8270    1.0000 </r>
       <r>   -2.8270    1.0000 </r>
       <r>   -2.4219    1.0000 </r>
       <r>   -2.4219    1.0000 </r>
       <r>   -2.3774    1.0000 </r>
       <r>   -2.3774    1.0000 </r>
       <r>   -2.3324    1.0000 </r>
       <r>   -2.3324    1.0000 </r>
       <r>   -2.0222    1.0000 </r>
       <r>   -2.0222    1.0000 </r>
       <r>   -0.7267    1.0000 </r>
       <r>   -0.7267    1.0000 </r>
       <r>   -0.5185    1.0000 </r>
       <r>   -0.5185    1.0000 </r>
       <r>   -0.4463    1.0000 </r>
       <r>   -0.4463    1.0000 </r>
       <r>    2.1908    0.0000 </r>
       <r>    2.1908    0.0000 </r>
       <r>    2.2348    0.0000 </r>
       <r>    2.2348    0.0000 </r>
       <r>    2.2871    0.0000 </r>
       <r>    2.2871    0.0000 </r>
       <r>    3.4187    0.0000 </r>
       <r>    3.4191    0.0000 </r>
       <r>    3.5657    0.0000 </r>
       <r>    3.6014    0.0000 </r>
      </set>
      <set comment="kpoint 10">
       <r>  -13.2400    1.0000 </r>
       <r>  -13.2400    1.0000 </r>
       <r>  -13.1700    1.0000 </r>
       <r>  -13.1700    1.0000 </r>
       <r>  -13.1248    1.0000 </r>
       <r>  -13.1248    1.0000 </r>
       <r>   -8.4254    1.0000 </r>
       <r>   -8.4254    1.0000 </r>
       <r>   -8.1347    1.0000 </r>
       <r>   -8.1347    1.0000 </r>
       <r>   -7.8944    1.0000 </r>
       <r>   -7.8944    1.0000 </r>
       <r>   -4.3691    1.0000 </r>
       <r>   -4.3691    1.0000 </r>
       <r>   -4.2626    1.0000 </r>
       <r>   -4.2626    1.0000 </r>
       <r>   -4.1647    1.0000 </r>
       <r>   -4.1647    1.0000 </r>
       <r>   -3.3500    1.0000 </r>
       <r>   -3.3500    1.0000 </r>
       <r>   -2.6365    1.0000 </r>
       <r>   -2.6365    1.0000 </r>
       <r>   -1.9668    1.0000 </r>
       <r>   -1.9668    1.0000 </r>
       <r>   -0.8108    1.0000 </r>
       <r>   -0.8108    1.0000 </r>
       <r>   -0.6436    1.0000 </r>
       <r>   -0.6436    1.0000 </r>
       <r>   -0.4904    1.0000 </r>
       <r>   -0.4904    1.0000 </r>
       <r>    2.8461    0.0000 </r>
       <r>    2.8461    0.0000 </r>
       <r>    2.9843    0.0000 </r>
       <r>    2.9843    0.0000 </r>
       <r>    3.0979    0.0000 </r>
       <r>    3.0979    0.0000 </r>
       <r>    3.5148    0.0000 </r>
       <r>    3.5148    0.0000 </r>
       <r>    3.9758    0.0000 </r>
       <r>    3.9758    0.0000 </r>
      </set>
      <set comment="kpoint 11">
       <r>  -12.3821    1.0000 </r>
       <r>  -12.3821    1.0000 </r>
       <r>  -12.3141    1.0000 </r>
       <r>  -12.3141    1.0000 </r>
       <r>  -12.2742    1.0000 </r>
       <r>  -12.2742    1.0000 </r>
       <r>   -8.6626    1.0000 </r>
       <r>   -8.6626    1.0000 </r>
       <r>   -8.5126    1.0000 </r>
       <r>   -8.5126    1.0000 </r>
       <r>   -8.4270    1.0000 </r>
       <r>   -8.4270    1.0000 </r>
       <r>   -5.7949    1.0000 </r>
       <r>   -5.7949    1.0000 </r>
       <r>   -5.5434    1.0000 </r>
       <r>   -5.5434    1.0000 </r>
       <r>   -5.3189    1.0000 </r>
       <r>   -5.3189    1.0000 </r>
       <r>   -3.4342    1.0000 </r>
       <r>   -3.4342    1.0000 </r>
       <r>   -3.0674    1.0000 </r>
       <r>   -3.0674    1.0000 </r>
       <r>   -2.7845    1.0000 </r>
       <r>   -2.7845    1.0000 </r>
       <r>   -1.8719    1.0000 </r>
       <r>   -1.8719    1.0000 </r>
       <r>   -1.3261    1.0000 </r>
       <r>   -1.3261    1.0000 </r>
       <r>   -0.8273    1.0000 </r>
       <r>   -0.8273    1.0000 </r>
       <r>    2.6931    0.0000 </r>
       <r>    2.6931    0.0000 </r>
       <r>    3.2800    0.0000 </r>
       <r>    3.2800    0.0000 </r>
       <r>    3.9575    0.0000 </r>
       <r>    3.9577    0.0000 </r>
       <r>    3.9847    0.0000 </r>
       <r>    3.9899    0.0000 </r>
       <r>    4.0923    0.0000 </r>
       <r>    4.1259    0.0000 </r>
      </set>
      <set comment="kpoint 12">
       <r>  -11.5657    1.0000 </r>
       <r>  -11.5657    1.0000 </r>
       <r>  -11.5092    1.0000 </r>
       <r>  -11.5092    1.0000 </r>
       <r>  -11.5090    1.0000 </r>
       <r>  -11.5090    1.0000 </r>
       <r>   -9.5289    1.0000 </r>
       <r>   -9.5289    1.0000 </r>
       <r>   -9.4650    1.0000 </r>
       <r>   -9.4650    1.0000 </r>
       <r>   -9.4637    1.0000 </r>
       <r>   -9.4637    1.0000 </r>
       <r>   -4.9599    1.0000 </r>
       <r>   -4.9599    1.0000 </r>
       <r>   -4.9451    1.0000 </r>
       <r>   -4.9451    1.0000 </r>
       <r>   -4.6699    1.0000 </r>
       <r>   -4.6699    1.0000 </r>
       <r>   -4.6163    1.0000 </r>
       <r>   -4.6163    1.0000 </r>
       <r>   -4.3743    1.0000 </r>
       <r>   -4.3743    1.0000 </r>
       <r>   -4.3736    1.0000 </r>
       <r>   -4.3736    1.0000 </r>
       <r>   -1.2335    1.0000 </r>
       <r>   -1.2335    1.0000 </r>
       <r>   -1.1790    1.0000 </r>
       <r>   -1.1790    1.0000 </r>
       <r>   -1.0505    1.0000 </r>
       <r>   -1.0505    1.0000 </r>
       <r>    2.6270    0.0000 </r>
       <r>    2.6270    0.0000 </r>
       <r>    2.7596    0.0000 </r>
       <r>    2.7596    0.0000 </r>
       <r>    2.8986    0.0000 </r>
       <r>    2.8986    0.0000 </r>
       <r>    4.8198    0.0000 </r>
       <r>    4.8324    0.0000 </r>
       <r>    4.8662    0.0000 </r>
       <r>    4.8692    0.0000 </r>
      </set>
     </set>
    </set>
   </array>
  </eigenvalues>
  <separator name="orbital magnetization" >
   <v name="MAGDIPOLOUT">      0.00000000      0.00000000      0.00000000</v>
  </separator>
  <dos>
   <i name="efermi">      0.94039359 </i>
   <total>
    <array>
     <dimension dim="1">gridpoints</dimension>
     <dimension dim="2">spin</dimension>
     <field>energy</field>
     <field>total</field>
     <field>integrated</field>
     <set>
      <set comment="spin 1">
       <r>   -15.8400     0.0000     0.0000 </r>
       <r>   -15.8291     0.0000     0.0000 </r>
       <r>   -15.8183     0.0000     0.0000 </r>
       <r>   -15.8074     0.0000     0.0000 </r>
       <r>   -15.7966     0.0000     0.0000 </r>
       <r>   -15.7857     0.0000     0.0000 </r>
       <r>   -15.7749     0.0000     0.0000 </r>
       <r>   -15.7640     0.0000     0.0000 </r>
       <r>   -15.7531     0.0000     0.0000 </r>
       <r>   -15.7423     0.0000     0.0000 </r>
       <r>   -15.7314     0.0000     0.0000 </r>
       <r>   -15.7206     0.0000     0.0000 </r>
       <r>   -15.7097     0.0000     0.0000 </r>
       <r>   -15.6989     0.0000     0.0000 </r>
       <r>   -15.6880     0.0000     0.0000 </r>
       <r>   -15.6772     0.0000     0.0000 </r>
       <r>   -15.6663     0.0000     0.0000 </r>
       <r>   -15.6555     0.0000     0.0000 </r>
       <r>   -15.6446     0.0000     0.0000 </r>
       <r>   -15.6338     0.0000     0.0000 </r>
       <r>   -15.6229     0.0000     0.0000 </r>
       <r>   -15.6121     0.0000     0.0000 </r>
       <r>   -15.6012     0.0000     0.0000 </r>
       <r>   -15.5904     0.0000     0.0000 </r>
       <r>   -15.5795     0.0000     0.0000 </r>
       <r>   -15.5686     0.0000     0.0000 </r>
       <r>   -15.5578     0.0000     0.0000 </r>
       <r>   -15.5469     0.0000     0.0000 </r>
       <r>   -15.5361     0.0000     0.0000 </r>
       <r>   -15.5252     0.0000     0.0000 </r>
       <r>   -15.5144     0.0000     0.0000 </r>
       <r>   -15.5035     0.0000     0.0000 </r>
       <r>   -15.4927     0.0000     0.0000 </r>
       <r>   -15.4818     0.0000     0.0000 </r>
       <r>   -15.4710     0.0000     0.0000 </r>
       <r>   -15.4601     0.0000     0.0000 </r>
       <r>   -15.4493     0.0000     0.0000 </r>
       <r>   -15.4384     0.0000     0.0000 </r>
       <r>   -15.4276     0.0000     0.0000 </r>
       <r>   -15.4167     0.0000     0.0000 </r>
       <r>   -15.4058     0.0000     0.0000 </r>
       <r>   -15.3950     0.0000     0.0000 </r>
       <r>   -15.3841     0.0000     0.0000 </r>
       <r>   -15.3733     0.0000     0.0000 </r>
       <r>   -15.3624     0.0000     0.0000 </r>
       <r>   -15.3516     0.0000     0.0000 </r>
       <r>   -15.3407     0.0000     0.0000 </r>
       <r>   -15.3299     0.0000     0.0000 </r>
       <r>   -15.3190     0.0000     0.0000 </r>
       <r>   -15.3082     0.0000     0.0000 </r>
       <r>   -15.2973     0.0000     0.0000 </r>
       <r>   -15.2865     0.0000     0.0000 </r>
       <r>   -15.2756     0.0000     0.0000 </r>
       <r>   -15.2648     0.0000     0.0000 </r>
       <r>   -15.2539     0.0000     0.0000 </r>
       <r>   -15.2431     0.0000     0.0000 </r>
       <r>   -15.2322     0.0000     0.0000 </r>
       <r>   -15.2213     0.0000     0.0000 </r>
       <r>   -15.2105     0.0000     0.0000 </r>
       <r>   -15.1996     0.0000     0.0000 </r>
       <r>   -15.1888     0.0000     0.0000 </r>
       <r>   -15.1779     0.0000     0.0000 </r>
       <r>   -15.1671     0.0000     0.0000 </r>
       <r>   -15.1562     0.0000     0.0000 </r>
       <r>   -15.1454     0.0000     0.0000 </r>
       <r>   -15.1345     0.0000     0.0000 </r>
       <r>   -15.1237     0.0000     0.0000 </r>
       <r>   -15.1128     0.0000     0.0000 </r>
       <r>   -15.1020     0.0000     0.0000 </r>
       <r>   -15.0911     0.0000     0.0000 </r>
       <r>   -15.0803     0.0000     0.0000 </r>
       <r>   -15.0694     0.0000     0.0000 </r>
       <r>   -15.0586     0.0000     0.0000 </r>
       <r>   -15.0477     0.0000     0.0000 </r>
       <r>   -15.0368     0.0000     0.0000 </r>
       <r>   -15.0260     0.0000     0.0000 </r>
       <r>   -15.0151     0.0000     0.0000 </r>
       <r>   -15.0043     0.0000     0.0000 </r>
       <r>   -14.9934     0.0000     0.0000 </r>
       <r>   -14.9826     0.0000     0.0000 </r>
       <r>   -14.9717     0.0000     0.0000 </r>
       <r>   -14.9609     0.0000     0.0000 </r>
       <r>   -14.9500     0.0000     0.0000 </r>
       <r>   -14.9392     0.0000     0.0000 </r>
       <r>   -14.9283     0.0000     0.0000 </r>
       <r>   -14.9175     0.0000     0.0000 </r>
       <r>   -14.9066     0.0000     0.0000 </r>
       <r>   -14.8958     0.0000     0.0000 </r>
       <r>   -14.8849     0.0000     0.0000 </r>
       <r>   -14.8740     0.0162     0.0002 </r>
       <r>   -14.8632     0.6939     0.0077 </r>
       <r>   -14.8523     3.7654     0.0486 </r>
       <r>   -14.8415     2.8912     0.0800 </r>
       <r>   -14.8306     0.3075     0.0833 </r>
       <r>   -14.8198     0.0040     0.0833 </r>
       <r>   -14.8089     0.0000     0.0833 </r>
       <r>   -14.7981     0.0000     0.0833 </r>
       <r>   -14.7872     0.0000     0.0833 </r>
       <r>   -14.7764     0.0000     0.0833 </r>
       <r>   -14.7655     0.0000     0.0833 </r>
       <r>   -14.7547     0.0090     0.0834 </r>
       <r>   -14.7438     0.4961     0.0888 </r>
       <r>   -14.7330     3.4165     0.1259 </r>
       <r>   -14.7221     3.3024     0.1617 </r>
       <r>   -14.7113     0.4468     0.1666 </r>
       <r>   -14.7004     0.0075     0.1667 </r>
       <r>   -14.6895     0.0017     0.1667 </r>
       <r>   -14.6787     0.1807     0.1686 </r>
       <r>   -14.6678     2.3318     0.1940 </r>
       <r>   -14.6570     4.1020     0.2385 </r>
       <r>   -14.6461     1.0286     0.2496 </r>
       <r>   -14.6353     0.0334     0.2500 </r>
       <r>   -14.6244     0.0001     0.2500 </r>
       <r>   -14.6136     0.0000     0.2500 </r>
       <r>   -14.6027     0.0000     0.2500 </r>
       <r>   -14.5919     0.0000     0.2500 </r>
       <r>   -14.5810     0.0000     0.2500 </r>
       <r>   -14.5702     0.0000     0.2500 </r>
       <r>   -14.5593     0.0003     0.2500 </r>
       <r>   -14.5485     0.0790     0.2509 </r>
       <r>   -14.5376     2.2481     0.2753 </r>
       <r>   -14.5267     8.3229     0.3656 </r>
       <r>   -14.5159     4.8170     0.4179 </r>
       <r>   -14.5050     5.3034     0.4754 </r>
       <r>   -14.4942     8.0436     0.5627 </r>
       <r>   -14.4833     1.8444     0.5827 </r>
       <r>   -14.4725     0.0544     0.5833 </r>
       <r>   -14.4616     0.0002     0.5833 </r>
       <r>   -14.4508     0.0000     0.5833 </r>
       <r>   -14.4399     0.0003     0.5833 </r>
       <r>   -14.4291     0.0750     0.5842 </r>
       <r>   -14.4182     2.1890     0.6079 </r>
       <r>   -14.4074     8.3555     0.6986 </r>
       <r>   -14.3965     6.5798     0.7700 </r>
       <r>   -14.3857     8.5634     0.8629 </r>
       <r>   -14.3748     4.5981     0.9128 </r>
       <r>   -14.3640     0.3796     0.9170 </r>
       <r>   -14.3531     1.3485     0.9316 </r>
       <r>   -14.3422     7.8210     1.0165 </r>
       <r>   -14.3314    10.5071     1.1305 </r>
       <r>   -14.3205     8.8567     1.2266 </r>
       <r>   -14.3097     2.0844     1.2493 </r>
       <r>   -14.2988     0.0679     1.2500 </r>
       <r>   -14.2880     0.0003     1.2500 </r>
       <r>   -14.2771     0.0000     1.2500 </r>
       <r>   -14.2663     0.0000     1.2500 </r>
       <r>   -14.2554     0.0000     1.2500 </r>
       <r>   -14.2446     0.0000     1.2500 </r>
       <r>   -14.2337     0.0000     1.2500 </r>
       <r>   -14.2229     0.0000     1.2500 </r>
       <r>   -14.2120     0.0009     1.2500 </r>
       <r>   -14.2012     0.1979     1.2522 </r>
       <r>   -14.1903     5.0515     1.3070 </r>
       <r>   -14.1795    16.8796     1.4902 </r>
       <r>   -14.1686     8.0602     1.5777 </r>
       <r>   -14.1577     0.5192     1.5833 </r>
       <r>   -14.1469     0.0040     1.5833 </r>
       <r>   -14.1360     0.0000     1.5833 </r>
       <r>   -14.1252     0.0000     1.5833 </r>
       <r>   -14.1143     0.0000     1.5833 </r>
       <r>   -14.1035     0.0001     1.5833 </r>
       <r>   -14.0926     0.0398     1.5838 </r>
       <r>   -14.0818     2.1053     1.6066 </r>
       <r>   -14.0709    13.9207     1.7577 </r>
       <r>   -14.0601    12.9395     1.8981 </r>
       <r>   -14.0492     1.6807     1.9164 </r>
       <r>   -14.0384     0.0297     1.9167 </r>
       <r>   -14.0275     0.4095     1.9211 </r>
       <r>   -14.0167     7.2227     1.9995 </r>
       <r>   -14.0058    17.0578     2.1847 </r>
       <r>   -13.9949     5.7622     2.2472 </r>
       <r>   -13.9841     0.2569     2.2500 </r>
       <r>   -13.9732     0.0013     2.2500 </r>
       <r>   -13.9624     0.0000     2.2500 </r>
       <r>   -13.9515     0.0000     2.2500 </r>
       <r>   -13.9407     0.0000     2.2500 </r>
       <r>   -13.9298     0.0000     2.2500 </r>
       <r>   -13.9190     0.0000     2.2500 </r>
       <r>   -13.9081     0.0000     2.2500 </r>
       <r>   -13.8973     0.0000     2.2500 </r>
       <r>   -13.8864     0.0000     2.2500 </r>
       <r>   -13.8756     0.0000     2.2500 </r>
       <r>   -13.8647     0.0000     2.2500 </r>
       <r>   -13.8539     0.0000     2.2500 </r>
       <r>   -13.8430     0.0000     2.2500 </r>
       <r>   -13.8322     0.0000     2.2500 </r>
       <r>   -13.8213     0.0000     2.2500 </r>
       <r>   -13.8104     0.0000     2.2500 </r>
       <r>   -13.7996     0.0000     2.2500 </r>
       <r>   -13.7887     0.0000     2.2500 </r>
       <r>   -13.7779     0.0000     2.2500 </r>
       <r>   -13.7670     0.0000     2.2500 </r>
       <r>   -13.7562     0.0000     2.2500 </r>
       <r>   -13.7453     0.0000     2.2500 </r>
       <r>   -13.7345     0.0000     2.2500 </r>
       <r>   -13.7236     0.0000     2.2500 </r>
       <r>   -13.7128     0.0000     2.2500 </r>
       <r>   -13.7019     0.0000     2.2500 </r>
       <r>   -13.6911     0.0000     2.2500 </r>
       <r>   -13.6802     0.0000     2.2500 </r>
       <r>   -13.6694     0.0000     2.2500 </r>
       <r>   -13.6585     0.0000     2.2500 </r>
       <r>   -13.6476     0.0000     2.2500 </r>
       <r>   -13.6368     0.0000     2.2500 </r>
       <r>   -13.6259     0.0000     2.2500 </r>
       <r>   -13.6151     0.0000     2.2500 </r>
       <r>   -13.6042     0.0010     2.2500 </r>
       <r>   -13.5934     0.1676     2.2518 </r>
       <r>   -13.5825     3.2824     2.2875 </r>
       <r>   -13.5717     8.5581     2.3803 </r>
       <r>   -13.5608     3.4718     2.4180 </r>
       <r>   -13.5500     4.3348     2.4651 </r>
       <r>   -13.5391     8.3964     2.5562 </r>
       <r>   -13.5283     2.4105     2.5823 </r>
       <r>   -13.5174     0.0903     2.5833 </r>
       <r>   -13.5066     0.0005     2.5833 </r>
       <r>   -13.4957     0.0378     2.5837 </r>
       <r>   -13.4849     1.5197     2.6002 </r>
       <r>   -13.4740     8.3358     2.6907 </r>
       <r>   -13.4631    11.4298     2.8148 </r>
       <r>   -13.4523     8.0245     2.9018 </r>
       <r>   -13.4414     2.0821     2.9244 </r>
       <r>   -13.4306     6.2085     2.9918 </r>
       <r>   -13.4197     7.2436     3.0704 </r>
       <r>   -13.4089     2.4077     3.0966 </r>
       <r>   -13.3980     7.2935     3.1757 </r>
       <r>   -13.3872     6.1170     3.2421 </r>
       <r>   -13.3763     0.7161     3.2499 </r>
       <r>   -13.3655     0.0103     3.2500 </r>
       <r>   -13.3546     0.0000     3.2500 </r>
       <r>   -13.3438     0.0000     3.2500 </r>
       <r>   -13.3329     0.0000     3.2500 </r>
       <r>   -13.3221     0.0000     3.2500 </r>
       <r>   -13.3112     0.0000     3.2500 </r>
       <r>   -13.3004     0.0000     3.2500 </r>
       <r>   -13.2895     0.0000     3.2500 </r>
       <r>   -13.2786     0.0034     3.2500 </r>
       <r>   -13.2678     0.4687     3.2551 </r>
       <r>   -13.2569     7.9349     3.3412 </r>
       <r>   -13.2461    22.6961     3.5876 </r>
       <r>   -13.2352    22.4140     3.8308 </r>
       <r>   -13.2244     7.4905     3.9121 </r>
       <r>   -13.2135     0.4160     3.9166 </r>
       <r>   -13.2027     0.0028     3.9167 </r>
       <r>   -13.1918     0.0307     3.9170 </r>
       <r>   -13.1810     1.8108     3.9367 </r>
       <r>   -13.1701    13.2723     4.0807 </r>
       <r>   -13.1593    14.2480     4.2353 </r>
       <r>   -13.1484    10.8061     4.3526 </r>
       <r>   -13.1376    17.7393     4.5451 </r>
       <r>   -13.1267    15.4848     4.7132 </r>
       <r>   -13.1158    15.6051     4.8826 </r>
       <r>   -13.1050     3.6408     4.9221 </r>
       <r>   -13.0941     8.4940     5.0143 </r>
       <r>   -13.0833    16.7705     5.1963 </r>
       <r>   -13.0724     4.7726     5.2481 </r>
       <r>   -13.0616     0.1772     5.2500 </r>
       <r>   -13.0507     0.0008     5.2500 </r>
       <r>   -13.0399     0.0000     5.2500 </r>
       <r>   -13.0290     0.0000     5.2500 </r>
       <r>   -13.0182     0.0000     5.2500 </r>
       <r>   -13.0073     0.0000     5.2500 </r>
       <r>   -12.9965     0.0000     5.2500 </r>
       <r>   -12.9856     0.0000     5.2500 </r>
       <r>   -12.9748     0.0000     5.2500 </r>
       <r>   -12.9639     0.0000     5.2500 </r>
       <r>   -12.9531     0.0000     5.2500 </r>
       <r>   -12.9422     0.0000     5.2500 </r>
       <r>   -12.9313     0.0000     5.2500 </r>
       <r>   -12.9205     0.0000     5.2500 </r>
       <r>   -12.9096     0.0000     5.2500 </r>
       <r>   -12.8988     0.0000     5.2500 </r>
       <r>   -12.8879     0.0000     5.2500 </r>
       <r>   -12.8771     0.0000     5.2500 </r>
       <r>   -12.8662     0.0000     5.2500 </r>
       <r>   -12.8554     0.0000     5.2500 </r>
       <r>   -12.8445     0.0000     5.2500 </r>
       <r>   -12.8337     0.0000     5.2500 </r>
       <r>   -12.8228     0.0000     5.2500 </r>
       <r>   -12.8120     0.0000     5.2500 </r>
       <r>   -12.8011     0.0000     5.2500 </r>
       <r>   -12.7903     0.0000     5.2500 </r>
       <r>   -12.7794     0.0000     5.2500 </r>
       <r>   -12.7685     0.0000     5.2500 </r>
       <r>   -12.7577     0.0000     5.2500 </r>
       <r>   -12.7468     0.0000     5.2500 </r>
       <r>   -12.7360     0.0000     5.2500 </r>
       <r>   -12.7251     0.0000     5.2500 </r>
       <r>   -12.7143     0.0000     5.2500 </r>
       <r>   -12.7034     0.0000     5.2500 </r>
       <r>   -12.6926     0.0000     5.2500 </r>
       <r>   -12.6817     0.0000     5.2500 </r>
       <r>   -12.6709     0.0000     5.2500 </r>
       <r>   -12.6600     0.0000     5.2500 </r>
       <r>   -12.6492     0.0000     5.2500 </r>
       <r>   -12.6383     0.0000     5.2500 </r>
       <r>   -12.6275     0.0000     5.2500 </r>
       <r>   -12.6166     0.0189     5.2502 </r>
       <r>   -12.6058     1.0229     5.2613 </r>
       <r>   -12.5949     6.8988     5.3362 </r>
       <r>   -12.5840     6.5357     5.4071 </r>
       <r>   -12.5732     0.8660     5.4165 </r>
       <r>   -12.5623     0.0142     5.4167 </r>
       <r>   -12.5515     0.0000     5.4167 </r>
       <r>   -12.5406     0.0000     5.4167 </r>
       <r>   -12.5298     0.0000     5.4167 </r>
       <r>   -12.5189     0.0000     5.4167 </r>
       <r>   -12.5081     0.0000     5.4167 </r>
       <r>   -12.4972     0.0000     5.4167 </r>
       <r>   -12.4864     0.0024     5.4167 </r>
       <r>   -12.4755     0.2967     5.4199 </r>
       <r>   -12.4647     4.2795     5.4664 </r>
       <r>   -12.4538     8.3606     5.5571 </r>
       <r>   -12.4430     2.3322     5.5824 </r>
       <r>   -12.4321     0.0848     5.5833 </r>
       <r>   -12.4213     0.0262     5.5836 </r>
       <r>   -12.4104     1.2228     5.5969 </r>
       <r>   -12.3995     7.4837     5.6781 </r>
       <r>   -12.3887    11.3934     5.8018 </r>
       <r>   -12.3778    19.3379     6.0116 </r>
       <r>   -12.3670    12.1714     6.1437 </r>
       <r>   -12.3561     2.0353     6.1658 </r>
       <r>   -12.3453     0.0774     6.1667 </r>
       <r>   -12.3344     0.0628     6.1673 </r>
       <r>   -12.3236     2.7166     6.1968 </r>
       <r>   -12.3127    14.9769     6.3594 </r>
       <r>   -12.3019    11.7013     6.4864 </r>
       <r>   -12.2910     3.0008     6.5189 </r>
       <r>   -12.2802    18.2759     6.7173 </r>
       <r>   -12.2693    31.5281     7.0595 </r>
       <r>   -12.2585     9.4365     7.1619 </r>
       <r>   -12.2476     0.4387     7.1666 </r>
       <r>   -12.2367     0.0026     7.1667 </r>
       <r>   -12.2259     0.0000     7.1667 </r>
       <r>   -12.2150     0.0000     7.1667 </r>
       <r>   -12.2042     0.0000     7.1667 </r>
       <r>   -12.1933     0.0000     7.1667 </r>
       <r>   -12.1825     0.0000     7.1667 </r>
       <r>   -12.1716     0.0256     7.1669 </r>
       <r>   -12.1608     1.6280     7.1846 </r>
       <r>   -12.1499    12.8026     7.3236 </r>
       <r>   -12.1391    14.3383     7.4792 </r>
       <r>   -12.1282     4.9939     7.5334 </r>
       <r>   -12.1174     3.8649     7.5753 </r>
       <r>   -12.1065     1.6067     7.5928 </r>
       <r>   -12.0957    10.1360     7.7028 </r>
       <r>   -12.0848    16.0825     7.8773 </r>
       <r>   -12.0740     5.8408     7.9407 </r>
       <r>   -12.0631     8.4193     8.0321 </r>
       <r>   -12.0522     4.5696     8.0817 </r>
       <r>   -12.0414     3.5760     8.1205 </r>
       <r>   -12.0305     8.5589     8.2134 </r>
       <r>   -12.0197     3.2137     8.2482 </r>
       <r>   -12.0088     0.1604     8.2500 </r>
       <r>   -11.9980     0.0009     8.2500 </r>
       <r>   -11.9871     0.0019     8.2500 </r>
       <r>   -11.9763     0.2545     8.2528 </r>
       <r>   -11.9654     4.0280     8.2965 </r>
       <r>   -11.9546     9.5046     8.3997 </r>
       <r>   -11.9437     6.6747     8.4721 </r>
       <r>   -11.9329     2.4011     8.4982 </r>
       <r>   -11.9220     0.6832     8.5056 </r>
       <r>   -11.9112     5.3743     8.5639 </r>
       <r>   -11.9003     7.8136     8.6487 </r>
       <r>   -11.8894     1.6130     8.6662 </r>
       <r>   -11.8786     0.0487     8.6667 </r>
       <r>   -11.8677     0.6913     8.6742 </r>
       <r>   -11.8569     9.1500     8.7735 </r>
       <r>   -11.8460    16.4875     8.9525 </r>
       <r>   -11.8352     4.2368     8.9985 </r>
       <r>   -11.8243     0.1411     9.0000 </r>
       <r>   -11.8135     0.0132     9.0001 </r>
       <r>   -11.8026     0.8095     9.0089 </r>
       <r>   -11.7918     6.3874     9.0782 </r>
       <r>   -11.7809     7.1180     9.1555 </r>
       <r>   -11.7701     4.2597     9.2017 </r>
       <r>   -11.7592    15.5843     9.3709 </r>
       <r>   -11.7484    10.8504     9.4886 </r>
       <r>   -11.7375     1.6946     9.5070 </r>
       <r>   -11.7267     8.9397     9.6040 </r>
       <r>   -11.7158    16.5811     9.7840 </r>
       <r>   -11.7049     4.3940     9.8317 </r>
       <r>   -11.6941     0.1512     9.8333 </r>
       <r>   -11.6832     0.0006     9.8333 </r>
       <r>   -11.6724     0.0000     9.8333 </r>
       <r>   -11.6615     0.0000     9.8333 </r>
       <r>   -11.6507     0.0000     9.8333 </r>
       <r>   -11.6398     0.0010     9.8333 </r>
       <r>   -11.6290     0.1671     9.8352 </r>
       <r>   -11.6181     3.2777     9.8707 </r>
       <r>   -11.6073     8.5560     9.9636 </r>
       <r>   -11.5964     3.1956     9.9983 </r>
       <r>   -11.5856     0.1967    10.0004 </r>
       <r>   -11.5747     1.5218    10.0169 </r>
       <r>   -11.5639     7.7060    10.1006 </r>
       <r>   -11.5530     5.5358    10.1606 </r>
       <r>   -11.5421     0.5490    10.1666 </r>
       <r>   -11.5313     0.0330    10.1670 </r>
       <r>   -11.5204     1.6558    10.1849 </r>
       <r>   -11.5096    12.8722    10.3246 </r>
       <r>   -11.4987    13.9816    10.4764 </r>
       <r>   -11.4879     2.1362    10.4996 </r>
       <r>   -11.4770     0.0408    10.5000 </r>
       <r>   -11.4662     0.0004    10.5000 </r>
       <r>   -11.4553     0.0929    10.5010 </r>
       <r>   -11.4445     3.3868    10.5378 </r>
       <r>   -11.4336    15.7982    10.7092 </r>
       <r>   -11.4228    10.4705    10.8229 </r>
       <r>   -11.4119     0.9539    10.8332 </r>
       <r>   -11.4011     0.0105    10.8333 </r>
       <r>   -11.3902     0.0000    10.8333 </r>
       <r>   -11.3794     0.0000    10.8333 </r>
       <r>   -11.3685     0.0000    10.8333 </r>
       <r>   -11.3576     0.0078    10.8334 </r>
       <r>   -11.3468     0.7910    10.8420 </r>
       <r>   -11.3359     9.6920    10.9472 </r>
       <r>   -11.3251    16.2386    11.1234 </r>
       <r>   -11.3142     4.6125    11.1735 </r>
       <r>   -11.3034     9.5472    11.2771 </r>
       <r>   -11.2925    16.3614    11.4547 </r>
       <r>   -11.2817     4.0463    11.4986 </r>
       <r>   -11.2708     0.1293    11.5000 </r>
       <r>   -11.2600     0.0005    11.5000 </r>
       <r>   -11.2491     0.0000    11.5000 </r>
       <r>   -11.2383     0.0000    11.5000 </r>
       <r>   -11.2274     0.0000    11.5000 </r>
       <r>   -11.2166     0.0000    11.5000 </r>
       <r>   -11.2057     0.0000    11.5000 </r>
       <r>   -11.1949     0.0000    11.5000 </r>
       <r>   -11.1840     0.0000    11.5000 </r>
       <r>   -11.1731     0.0000    11.5000 </r>
       <r>   -11.1623     0.0000    11.5000 </r>
       <r>   -11.1514     0.0000    11.5000 </r>
       <r>   -11.1406     0.0000    11.5000 </r>
       <r>   -11.1297     0.0000    11.5000 </r>
       <r>   -11.1189     0.0000    11.5000 </r>
       <r>   -11.1080     0.0000    11.5000 </r>
       <r>   -11.0972     0.0000    11.5000 </r>
       <r>   -11.0863     0.0000    11.5000 </r>
       <r>   -11.0755     0.0000    11.5000 </r>
       <r>   -11.0646     0.0001    11.5000 </r>
       <r>   -11.0538     0.0468    11.5005 </r>
       <r>   -11.0429     1.6999    11.5190 </r>
       <r>   -11.0321     7.9057    11.6048 </r>
       <r>   -11.0212     5.2243    11.6615 </r>
       <r>   -11.0103     0.4745    11.6666 </r>
       <r>   -10.9995     0.0052    11.6667 </r>
       <r>   -10.9886     0.0000    11.6667 </r>
       <r>   -10.9778     0.0000    11.6667 </r>
       <r>   -10.9669     0.0000    11.6667 </r>
       <r>   -10.9561     0.0000    11.6667 </r>
       <r>   -10.9452     0.0000    11.6667 </r>
       <r>   -10.9344     0.0000    11.6667 </r>
       <r>   -10.9235     0.0000    11.6667 </r>
       <r>   -10.9127     0.0000    11.6667 </r>
       <r>   -10.9018     0.0000    11.6667 </r>
       <r>   -10.8910     0.0000    11.6667 </r>
       <r>   -10.8801     0.0000    11.6667 </r>
       <r>   -10.8693     0.0000    11.6667 </r>
       <r>   -10.8584     0.0000    11.6667 </r>
       <r>   -10.8476     0.0000    11.6667 </r>
       <r>   -10.8367     0.0000    11.6667 </r>
       <r>   -10.8258     0.0001    11.6667 </r>
       <r>   -10.8150     0.0266    11.6670 </r>
       <r>   -10.8041     1.2416    11.6804 </r>
       <r>   -10.7933     7.3072    11.7597 </r>
       <r>   -10.7824     6.0701    11.8256 </r>
       <r>   -10.7716     0.7011    11.8332 </r>
       <r>   -10.7607     0.0099    11.8333 </r>
       <r>   -10.7499     0.0000    11.8333 </r>
       <r>   -10.7390     0.0000    11.8333 </r>
       <r>   -10.7282     0.0000    11.8333 </r>
       <r>   -10.7173     0.0000    11.8333 </r>
       <r>   -10.7065     0.0000    11.8333 </r>
       <r>   -10.6956     0.0000    11.8333 </r>
       <r>   -10.6848     0.0000    11.8333 </r>
       <r>   -10.6739     0.0000    11.8333 </r>
       <r>   -10.6630     0.0000    11.8333 </r>
       <r>   -10.6522     0.0000    11.8333 </r>
       <r>   -10.6413     0.0160    11.8335 </r>
       <r>   -10.6305     0.9285    11.8436 </r>
       <r>   -10.6196     6.6885    11.9162 </r>
       <r>   -10.6088     6.7512    11.9894 </r>
       <r>   -10.5979     0.9556    11.9998 </r>
       <r>   -10.5871     0.0168    12.0000 </r>
       <r>   -10.5762     0.0000    12.0000 </r>
       <r>   -10.5654     0.0000    12.0000 </r>
       <r>   -10.5545     0.0000    12.0000 </r>
       <r>   -10.5437     0.0000    12.0000 </r>
       <r>   -10.5328     0.0000    12.0000 </r>
       <r>   -10.5220     0.0000    12.0000 </r>
       <r>   -10.5111     0.0000    12.0000 </r>
       <r>   -10.5003     0.0000    12.0000 </r>
       <r>   -10.4894     0.0000    12.0000 </r>
       <r>   -10.4785     0.0000    12.0000 </r>
       <r>   -10.4677     0.0000    12.0000 </r>
       <r>   -10.4568     0.0000    12.0000 </r>
       <r>   -10.4460     0.0000    12.0000 </r>
       <r>   -10.4351     0.0000    12.0000 </r>
       <r>   -10.4243     0.0000    12.0000 </r>
       <r>   -10.4134     0.0000    12.0000 </r>
       <r>   -10.4026     0.0000    12.0000 </r>
       <r>   -10.3917     0.0000    12.0000 </r>
       <r>   -10.3809     0.0000    12.0000 </r>
       <r>   -10.3700     0.0000    12.0000 </r>
       <r>   -10.3592     0.0000    12.0000 </r>
       <r>   -10.3483     0.0000    12.0000 </r>
       <r>   -10.3375     0.0000    12.0000 </r>
       <r>   -10.3266     0.0000    12.0000 </r>
       <r>   -10.3158     0.0000    12.0000 </r>
       <r>   -10.3049     0.0000    12.0000 </r>
       <r>   -10.2940     0.0000    12.0000 </r>
       <r>   -10.2832     0.0000    12.0000 </r>
       <r>   -10.2723     0.0001    12.0000 </r>
       <r>   -10.2615     0.0277    12.0003 </r>
       <r>   -10.2506     1.2700    12.0141 </r>
       <r>   -10.2398     7.3534    12.0939 </r>
       <r>   -10.2289     6.0129    12.1591 </r>
       <r>   -10.2181     0.6831    12.1666 </r>
       <r>   -10.2072     0.0095    12.1667 </r>
       <r>   -10.1964     0.0000    12.1667 </r>
       <r>   -10.1855     0.0044    12.1667 </r>
       <r>   -10.1747     0.4251    12.1713 </r>
       <r>   -10.1638     4.9953    12.2255 </r>
       <r>   -10.1530     8.1796    12.3143 </r>
       <r>   -10.1421     4.8680    12.3671 </r>
       <r>   -10.1312     8.6012    12.4605 </r>
       <r>   -10.1204     3.4523    12.4980 </r>
       <r>   -10.1095     0.1861    12.5000 </r>
       <r>   -10.0987     0.0012    12.5000 </r>
       <r>   -10.0878     0.0000    12.5000 </r>
       <r>   -10.0770     0.0000    12.5000 </r>
       <r>   -10.0661     0.0000    12.5000 </r>
       <r>   -10.0553     0.0000    12.5000 </r>
       <r>   -10.0444     0.0000    12.5000 </r>
       <r>   -10.0336     0.0000    12.5000 </r>
       <r>   -10.0227     0.0000    12.5000 </r>
       <r>   -10.0119     0.0000    12.5000 </r>
       <r>   -10.0010     0.0000    12.5000 </r>
       <r>    -9.9902     0.0000    12.5000 </r>
       <r>    -9.9793     0.0000    12.5000 </r>
       <r>    -9.9685     0.0000    12.5000 </r>
       <r>    -9.9576     0.0000    12.5000 </r>
       <r>    -9.9467     0.0000    12.5000 </r>
       <r>    -9.9359     0.0000    12.5000 </r>
       <r>    -9.9250     0.0000    12.5000 </r>
       <r>    -9.9142     0.0000    12.5000 </r>
       <r>    -9.9033     0.0000    12.5000 </r>
       <r>    -9.8925     0.0000    12.5000 </r>
       <r>    -9.8816     0.0000    12.5000 </r>
       <r>    -9.8708     0.0000    12.5000 </r>
       <r>    -9.8599     0.0000    12.5000 </r>
       <r>    -9.8491     0.0000    12.5000 </r>
       <r>    -9.8382     0.0000    12.5000 </r>
       <r>    -9.8274     0.0000    12.5000 </r>
       <r>    -9.8165     0.0000    12.5000 </r>
       <r>    -9.8057     0.0000    12.5000 </r>
       <r>    -9.7948     0.0000    12.5000 </r>
       <r>    -9.7839     0.0000    12.5000 </r>
       <r>    -9.7731     0.0109    12.5001 </r>
       <r>    -9.7622     0.9736    12.5107 </r>
       <r>    -9.7514    10.5569    12.6253 </r>
       <r>    -9.7405    15.7455    12.7961 </r>
       <r>    -9.7297     3.3358    12.8323 </r>
       <r>    -9.7188     0.0904    12.8333 </r>
       <r>    -9.7080     0.0003    12.8333 </r>
       <r>    -9.6971     0.0000    12.8333 </r>
       <r>    -9.6863     0.0000    12.8333 </r>
       <r>    -9.6754     0.0000    12.8333 </r>
       <r>    -9.6646     0.0000    12.8333 </r>
       <r>    -9.6537     0.0000    12.8333 </r>
       <r>    -9.6429     0.0000    12.8333 </r>
       <r>    -9.6320     0.0000    12.8333 </r>
       <r>    -9.6212     0.0001    12.8333 </r>
       <r>    -9.6103     0.0336    12.8337 </r>
       <r>    -9.5994     1.9100    12.8544 </r>
       <r>    -9.5886    13.4999    13.0009 </r>
       <r>    -9.5777    13.3795    13.1462 </r>
       <r>    -9.5669     1.8580    13.1663 </r>
       <r>    -9.5560     0.0330    13.1667 </r>
       <r>    -9.5452     0.1639    13.1685 </r>
       <r>    -9.5343     3.2471    13.2037 </r>
       <r>    -9.5235     8.5563    13.2966 </r>
       <r>    -9.5126     3.2259    13.3316 </r>
       <r>    -9.5018     0.1848    13.3336 </r>
       <r>    -9.4909     1.5387    13.3503 </r>
       <r>    -9.4801    12.9463    13.4908 </r>
       <r>    -9.4692    21.4172    13.7232 </r>
       <r>    -9.4584    19.3047    13.9327 </r>
       <r>    -9.4475     6.1202    13.9992 </r>
       <r>    -9.4367     5.3005    14.0567 </r>
       <r>    -9.4258    16.8739    14.2398 </r>
       <r>    -9.4149     8.2732    14.3296 </r>
       <r>    -9.4041     3.9530    14.3725 </r>
       <r>    -9.3932     8.5529    14.4653 </r>
       <r>    -9.3824     3.0486    14.4984 </r>
       <r>    -9.3715     0.1440    14.5000 </r>
       <r>    -9.3607     0.0008    14.5000 </r>
       <r>    -9.3498     0.0000    14.5000 </r>
       <r>    -9.3390     0.0000    14.5000 </r>
       <r>    -9.3281     0.0000    14.5000 </r>
       <r>    -9.3173     0.0000    14.5000 </r>
       <r>    -9.3064     0.0000    14.5000 </r>
       <r>    -9.2956     0.0114    14.5001 </r>
       <r>    -9.2847     1.0041    14.5110 </r>
       <r>    -9.2739    10.6882    14.6270 </r>
       <r>    -9.2630    15.6635    14.7970 </r>
       <r>    -9.2521     3.2591    14.8324 </r>
       <r>    -9.2413     0.0866    14.8333 </r>
       <r>    -9.2304     0.0003    14.8333 </r>
       <r>    -9.2196     0.0000    14.8333 </r>
       <r>    -9.2087     0.0011    14.8333 </r>
       <r>    -9.1979     0.2284    14.8358 </r>
       <r>    -9.1870     5.5451    14.8960 </r>
       <r>    -9.1762    19.7730    15.1106 </r>
       <r>    -9.1653    16.1189    15.2855 </r>
       <r>    -9.1545     4.1803    15.3309 </r>
       <r>    -9.1436     0.2217    15.3333 </r>
       <r>    -9.1328     0.0015    15.3333 </r>
       <r>    -9.1219     0.0000    15.3333 </r>
       <r>    -9.1111     0.0000    15.3333 </r>
       <r>    -9.1002     0.0000    15.3333 </r>
       <r>    -9.0894     0.0000    15.3333 </r>
       <r>    -9.0785     0.0000    15.3333 </r>
       <r>    -9.0676     0.0006    15.3333 </r>
       <r>    -9.0568     0.1564    15.3350 </r>
       <r>    -9.0459     4.4724    15.3836 </r>
       <r>    -9.0351    16.6246    15.5640 </r>
       <r>    -9.0242     8.8993    15.6606 </r>
       <r>    -9.0134     3.7497    15.7013 </r>
       <r>    -9.0025    15.4771    15.8693 </r>
       <r>    -8.9917    10.9572    15.9882 </r>
       <r>    -8.9808     1.0762    15.9999 </r>
       <r>    -8.9700     0.0129    16.0000 </r>
       <r>    -8.9591     0.0000    16.0000 </r>
       <r>    -8.9483     0.0000    16.0000 </r>
       <r>    -8.9374     0.0000    16.0000 </r>
       <r>    -8.9266     0.0006    16.0000 </r>
       <r>    -8.9157     0.1172    16.0013 </r>
       <r>    -8.9048     2.8598    16.0323 </r>
       <r>    -8.8940    12.2561    16.1653 </r>
       <r>    -8.8831    19.8994    16.3813 </r>
       <r>    -8.8723    10.1035    16.4910 </r>
       <r>    -8.8614     1.2278    16.5043 </r>
       <r>    -8.8506     5.2760    16.5615 </r>
       <r>    -8.8397    14.4376    16.7182 </r>
       <r>    -8.8289    17.8008    16.9114 </r>
       <r>    -8.8180     7.5484    16.9934 </r>
       <r>    -8.8072     0.6058    16.9999 </r>
       <r>    -8.7963     0.0212    17.0002 </r>
       <r>    -8.7855     1.1603    17.0127 </r>
[...]
        <r>  0.0000  0.0199  0.0356  0.0015  0.0000  0.0000  0.0000  0.0000  0.0000 </r>
        <r>  0.0000  0.0010  0.0017  0.0305  0.0000  0.0000  0.0000  0.0000  0.0000 </r>
        <r>  0.0000  0.0199  0.0356  0.0015  0.0000  0.0000  0.0000  0.0000  0.0000 </r>
        <r>  0.0000  0.0010  0.0017  0.0305  0.0000  0.0000  0.0000  0.0000  0.0000 </r>
        <r>  0.0014  0.0002  0.0006  0.0074  0.0000  0.0000  0.0000  0.0000  0.0000 </r>
        <r>  0.0282  0.0039  0.0127  0.0004  0.0000  0.0000  0.0000  0.0000  0.0000 </r>
        <r>  0.0014  0.0003  0.0010  0.0141  0.0000  0.0000  0.0000  0.0000  0.0000 </r>
        <r>  0.0297  0.0066  0.0212  0.0007  0.0000  0.0000  0.0000  0.0000  0.0000 </r>
       </set>
       <set comment="band 25">
        <r>  0.0001  0.0017  0.0007  0.0003  0.0000  0.0000  0.0000  0.0000  0.0000 </r>
        <r>  0.0001  0.0011  0.0005  0.0005  0.0000  0.0000  0.0000  0.0000  0.0000 </r>
        <r>  0.0003  0.0001  0.0014  0.0006  0.0000  0.0000  0.0000  0.0000  0.0000 </r>
        <r>  0.0002  0.0000  0.0009  0.0009  0.0000  0.0000  0.0000  0.0000  0.0000 </r>
        <r>  0.0080  0.0612  0.0088  0.0115  0.0000  0.0000  0.0000  0.0000  0.0000 </r>
        <r>  0.0120  0.0919  0.0132  0.0077  0.0000  0.0000  0.0000  0.0000  0.0000 </r>
        <r>  0.0080  0.0612  0.0088  0.0115  0.0000  0.0000  0.0000  0.0000  0.0000 </r>
        <r>  0.0120  0.0919  0.0132  0.0077  0.0000  0.0000  0.0000  0.0000  0.0000 </r>
        <r>  0.0003  0.0001  0.0014  0.0006  0.0000  0.0000  0.0000  0.0000  0.0000 </r>
        <r>  0.0002  0.0000  0.0009  0.0009  0.0000  0.0000  0.0000  0.0000  0.0000 </r>
        <r>  0.0001  0.0017  0.0007  0.0003  0.0000  0.0000  0.0000  0.0000  0.0000 </r>
        <r>  0.0001  0.0011  0.0005  0.0005  0.0000  0.0000  0.0000  0.0000  0.0000 </r>
       </set>
       <set comment="band 26">
        <r>  0.0001  0.0011  0.0005  0.0005  0.0000  0.0000  0.0000  0.0000  0.0000 </r>
        <r>  0.0001  0.0017  0.0007  0.0003  0.0000  0.0000  0.0000  0.0000  0.0000 </r>
        <r>  0.0002  0.0000  0.0009  0.0009  0.0000  0.0000  0.0000  0.0000  0.0000 </r>
        <r>  0.0003  0.0001  0.0014  0.0006  0.0000  0.0000  0.0000  0.0000  0.0000 </r>
        <r>  0.0120  0.0919  0.0132  0.0077  0.0000  0.0000  0.0000  0.0000  0.0000 </r>
        <r>  0.0080  0.0612  0.0088  0.0115  0.0000  0.0000  0.0000  0.0000  0.0000 </r>
        <r>  0.0120  0.0919  0.0132  0.0077  0.0000  0.0000  0.0000  0.0000  0.0000 </r>
        <r>  0.0080  0.0612  0.0088  0.0115  0.0000  0.0000  0.0000  0.0000  0.0000 </r>
        <r>  0.0002  0.0000  0.0009  0.0009  0.0000  0.0000  0.0000  0.0000  0.0000 </r>
        <r>  0.0003  0.0001  0.0014  0.0006  0.0000  0.0000  0.0000  0.0000  0.0000 </r>
        <r>  0.0001  0.0011  0.0005  0.0005  0.0000  0.0000  0.0000  0.0000  0.0000 </r>
        <r>  0.0001  0.0017  0.0007  0.0003  0.0000  0.0000  0.0000  0.0000  0.0000 </r>
       </set>
       <set comment="band 27">
        <r>  0.0052  0.0322  0.0052  0.0063  0.0000  0.0000  0.0000  0.0000  0.0000 </r>
        <r>  0.0074  0.0458  0.0074  0.0044  0.0000  0.0000  0.0000  0.0000  0.0000 </r>
        <r>  0.0033  0.0321  0.0042  0.0053  0.0000  0.0000  0.0000  0.0000  0.0000 </r>
        <r>  0.0047  0.0457  0.0059  0.0037  0.0000  0.0000  0.0000  0.0000  0.0000 </r>
        <r>  0.0004  0.0012  0.0000  0.0000  0.0000  0.0000  0.0000  0.0000  0.0000 </r>
        <r>  0.0003  0.0009  0.0000  0.0000  0.0000  0.0000  0.0000  0.0000  0.0000 </r>
        <r>  0.0004  0.0012  0.0000  0.0000  0.0000  0.0000  0.0000  0.0000  0.0000 </r>
        <r>  0.0003  0.0009  0.0000  0.0000  0.0000  0.0000  0.0000  0.0000  0.0000 </r>
        <r>  0.0033  0.0321  0.0042  0.0053  0.0000  0.0000  0.0000  0.0000  0.0000 </r>
        <r>  0.0047  0.0457  0.0059  0.0037  0.0000  0.0000  0.0000  0.0000  0.0000 </r>
        <r>  0.0052  0.0322  0.0052  0.0063  0.0000  0.0000  0.0000  0.0000  0.0000 </r>
        <r>  0.0074  0.0458  0.0074  0.0044  0.0000  0.0000  0.0000  0.0000  0.0000 </r>
       </set>
       <set comment="band 28">
        <r>  0.0074  0.0458  0.0074  0.0044  0.0000  0.0000  0.0000  0.0000  0.0000 </r>
        <r>  0.0052  0.0322  0.0052  0.0063  0.0000  0.0000  0.0000  0.0000  0.0000 </r>
        <r>  0.0047  0.0457  0.0059  0.0037  0.0000  0.0000  0.0000  0.0000  0.0000 </r>
        <r>  0.0033  0.0321  0.0042  0.0053  0.0000  0.0000  0.0000  0.0000  0.0000 </r>
        <r>  0.0003  0.0009  0.0000  0.0000  0.0000  0.0000  0.0000  0.0000  0.0000 </r>
        <r>  0.0004  0.0012  0.0000  0.0000  0.0000  0.0000  0.0000  0.0000  0.0000 </r>
        <r>  0.0003  0.0009  0.0000  0.0000  0.0000  0.0000  0.0000  0.0000  0.0000 </r>
        <r>  0.0004  0.0012  0.0000  0.0000  0.0000  0.0000  0.0000  0.0000  0.0000 </r>
        <r>  0.0047  0.0457  0.0059  0.0037  0.0000  0.0000  0.0000  0.0000  0.0000 </r>
        <r>  0.0033  0.0321  0.0042  0.0053  0.0000  0.0000  0.0000  0.0000  0.0000 </r>
        <r>  0.0074  0.0458  0.0074  0.0044  0.0000  0.0000  0.0000  0.0000  0.0000 </r>
        <r>  0.0052  0.0322  0.0052  0.0063  0.0000  0.0000  0.0000  0.0000  0.0000 </r>
       </set>
       <set comment="band 29">
        <r>  0.0029  0.0199  0.0030  0.0079  0.0000  0.0000  0.0000  0.0000  0.0000 </r>
        <r>  0.0086  0.0598  0.0091  0.0026  0.0000  0.0000  0.0000  0.0000  0.0000 </r>
        <r>  0.0026  0.0200  0.0029  0.0076  0.0000  0.0000  0.0000  0.0000  0.0000 </r>
        <r>  0.0078  0.0599  0.0088  0.0025  0.0000  0.0000  0.0000  0.0000  0.0000 </r>
        <r>  0.0000  0.0006  0.0025  0.0005  0.0000  0.0000  0.0000  0.0000  0.0000 </r>
        <r>  0.0000  0.0002  0.0009  0.0016  0.0000  0.0000  0.0000  0.0000  0.0000 </r>
        <r>  0.0000  0.0006  0.0025  0.0005  0.0000  0.0000  0.0000  0.0000  0.0000 </r>
        <r>  0.0000  0.0002  0.0009  0.0016  0.0000  0.0000  0.0000  0.0000  0.0000 </r>
        <r>  0.0026  0.0200  0.0029  0.0076  0.0000  0.0000  0.0000  0.0000  0.0000 </r>
        <r>  0.0078  0.0599  0.0088  0.0025  0.0000  0.0000  0.0000  0.0000  0.0000 </r>
        <r>  0.0029  0.0199  0.0030  0.0079  0.0000  0.0000  0.0000  0.0000  0.0000 </r>
        <r>  0.0086  0.0598  0.0091  0.0026  0.0000  0.0000  0.0000  0.0000  0.0000 </r>
       </set>
       <set comment="band 30">
        <r>  0.0086  0.0598  0.0091  0.0026  0.0000  0.0000  0.0000  0.0000  0.0000 </r>
        <r>  0.0029  0.0199  0.0030  0.0079  0.0000  0.0000  0.0000  0.0000  0.0000 </r>
        <r>  0.0078  0.0599  0.0088  0.0025  0.0000  0.0000  0.0000  0.0000  0.0000 </r>
        <r>  0.0026  0.0200  0.0029  0.0076  0.0000  0.0000  0.0000  0.0000  0.0000 </r>
        <r>  0.0000  0.0002  0.0009  0.0016  0.0000  0.0000  0.0000  0.0000  0.0000 </r>
        <r>  0.0000  0.0006  0.0025  0.0005  0.0000  0.0000  0.0000  0.0000  0.0000 </r>
        <r>  0.0000  0.0002  0.0009  0.0016  0.0000  0.0000  0.0000  0.0000  0.0000 </r>
        <r>  0.0000  0.0006  0.0025  0.0005  0.0000  0.0000  0.0000  0.0000  0.0000 </r>
        <r>  0.0078  0.0599  0.0088  0.0025  0.0000  0.0000  0.0000  0.0000  0.0000 </r>
        <r>  0.0026  0.0200  0.0029  0.0076  0.0000  0.0000  0.0000  0.0000  0.0000 </r>
        <r>  0.0086  0.0598  0.0091  0.0026  0.0000  0.0000  0.0000  0.0000  0.0000 </r>
        <r>  0.0029  0.0199  0.0030  0.0079  0.0000  0.0000  0.0000  0.0000  0.0000 </r>
       </set>
       <set comment="band 31">
        <r>  0.0020  0.0081  0.0006  0.0026  0.0000  0.0000  0.0000  0.0000  0.0000 </r>
        <r>  0.0093  0.0385  0.0028  0.0006  0.0000  0.0000  0.0000  0.0000  0.0000 </r>
        <r>  0.0018  0.0084  0.0003  0.0019  0.0000  0.0000  0.0000  0.0000  0.0000 </r>
        <r>  0.0087  0.0397  0.0012  0.0004  0.0000  0.0000  0.0000  0.0000  0.0000 </r>
        <r>  0.0054  0.0047  0.0007  0.0001  0.0000  0.0000  0.0000  0.0000  0.0000 </r>
        <r>  0.0011  0.0010  0.0002  0.0003  0.0000  0.0000  0.0000  0.0000  0.0000 </r>
        <r>  0.0054  0.0047  0.0007  0.0001  0.0000  0.0000  0.0000  0.0000  0.0000 </r>
        <r>  0.0011  0.0010  0.0002  0.0003  0.0000  0.0000  0.0000  0.0000  0.0000 </r>
        <r>  0.0018  0.0084  0.0003  0.0019  0.0000  0.0000  0.0000  0.0000  0.0000 </r>
        <r>  0.0087  0.0397  0.0012  0.0004  0.0000  0.0000  0.0000  0.0000  0.0000 </r>
        <r>  0.0020  0.0081  0.0006  0.0026  0.0000  0.0000  0.0000  0.0000  0.0000 </r>
        <r>  0.0093  0.0385  0.0028  0.0006  0.0000  0.0000  0.0000  0.0000  0.0000 </r>
       </set>
       <set comment="band 32">
        <r>  0.0093  0.0385  0.0028  0.0006  0.0000  0.0000  0.0000  0.0000  0.0000 </r>
        <r>  0.0020  0.0081  0.0006  0.0026  0.0000  0.0000  0.0000  0.0000  0.0000 </r>
        <r>  0.0087  0.0397  0.0012  0.0004  0.0000  0.0000  0.0000  0.0000  0.0000 </r>
        <r>  0.0018  0.0084  0.0003  0.0019  0.0000  0.0000  0.0000  0.0000  0.0000 </r>
        <r>  0.0011  0.0010  0.0002  0.0003  0.0000  0.0000  0.0000  0.0000  0.0000 </r>
        <r>  0.0054  0.0047  0.0007  0.0001  0.0000  0.0000  0.0000  0.0000  0.0000 </r>
        <r>  0.0011  0.0010  0.0002  0.0003  0.0000  0.0000  0.0000  0.0000  0.0000 </r>
        <r>  0.0054  0.0047  0.0007  0.0001  0.0000  0.0000  0.0000  0.0000  0.0000 </r>
        <r>  0.0087  0.0397  0.0012  0.0004  0.0000  0.0000  0.0000  0.0000  0.0000 </r>
        <r>  0.0018  0.0084  0.0003  0.0019  0.0000  0.0000  0.0000  0.0000  0.0000 </r>
        <r>  0.0093  0.0385  0.0028  0.0006  0.0000  0.0000  0.0000  0.0000  0.0000 </r>
        <r>  0.0020  0.0081  0.0006  0.0026  0.0000  0.0000  0.0000  0.0000  0.0000 </r>
       </set>
       <set comment="band 33">
        <r>  0.0002  0.0080  0.0002  0.0001  0.0000  0.0000  0.0000  0.0000  0.0000 </r>
        <r>  0.0002  0.0061  0.0002  0.0001  0.0000  0.0000  0.0000  0.0000  0.0000 </r>
        <r>  0.0050  0.0000  0.0023  0.0008  0.0000  0.0000  0.0000  0.0000  0.0000 </r>
        <r>  0.0038  0.0000  0.0017  0.0010  0.0000  0.0000  0.0000  0.0000  0.0000 </r>
        <r>  0.0095  0.0417  0.0022  0.0034  0.0000  0.0000  0.0000  0.0000  0.0000 </r>
        <r>  0.0126  0.0552  0.0029  0.0025  0.0000  0.0000  0.0000  0.0000  0.0000 </r>
        <r>  0.0095  0.0417  0.0022  0.0034  0.0000  0.0000  0.0000  0.0000  0.0000 </r>
        <r>  0.0126  0.0552  0.0029  0.0025  0.0000  0.0000  0.0000  0.0000  0.0000 </r>
        <r>  0.0050  0.0000  0.0023  0.0008  0.0000  0.0000  0.0000  0.0000  0.0000 </r>
        <r>  0.0038  0.0000  0.0017  0.0010  0.0000  0.0000  0.0000  0.0000  0.0000 </r>
        <r>  0.0002  0.0080  0.0002  0.0001  0.0000  0.0000  0.0000  0.0000  0.0000 </r>
        <r>  0.0002  0.0061  0.0002  0.0001  0.0000  0.0000  0.0000  0.0000  0.0000 </r>
       </set>
       <set comment="band 34">
        <r>  0.0002  0.0061  0.0002  0.0001  0.0000  0.0000  0.0000  0.0000  0.0000 </r>
        <r>  0.0002  0.0080  0.0002  0.0001  0.0000  0.0000  0.0000  0.0000  0.0000 </r>
        <r>  0.0038  0.0000  0.0017  0.0010  0.0000  0.0000  0.0000  0.0000  0.0000 </r>
        <r>  0.0050  0.0000  0.0023  0.0008  0.0000  0.0000  0.0000  0.0000  0.0000 </r>
        <r>  0.0126  0.0552  0.0029  0.0025  0.0000  0.0000  0.0000  0.0000  0.0000 </r>
        <r>  0.0095  0.0417  0.0022  0.0034  0.0000  0.0000  0.0000  0.0000  0.0000 </r>
        <r>  0.0126  0.0552  0.0029  0.0025  0.0000  0.0000  0.0000  0.0000  0.0000 </r>
        <r>  0.0095  0.0417  0.0022  0.0034  0.0000  0.0000  0.0000  0.0000  0.0000 </r>
        <r>  0.0038  0.0000  0.0017  0.0010  0.0000  0.0000  0.0000  0.0000  0.0000 </r>
        <r>  0.0050  0.0000  0.0023  0.0008  0.0000  0.0000  0.0000  0.0000  0.0000 </r>
        <r>  0.0002  0.0061  0.0002  0.0001  0.0000  0.0000  0.0000  0.0000  0.0000 </r>
        <r>  0.0002  0.0080  0.0002  0.0001  0.0000  0.0000  0.0000  0.0000  0.0000 </r>
       </set>
       <set comment="band 35">
        <r>  0.0118  0.0509  0.0020  0.0002  0.0000  0.0000  0.0000  0.0000  0.0000 </r>
        <r>  0.0009  0.0038  0.0002  0.0025  0.0000  0.0000  0.0000  0.0000  0.0000 </r>
        <r>  0.0122  0.0501  0.0044  0.0003  0.0000  0.0000  0.0000  0.0000  0.0000 </r>
        <r>  0.0009  0.0038  0.0003  0.0037  0.0000  0.0000  0.0000  0.0000  0.0000 </r>
        <r>  0.0002  0.0005  0.0003  0.0014  0.0000  0.0000  0.0000  0.0000  0.0000 </r>
        <r>  0.0024  0.0068  0.0034  0.0001  0.0000  0.0000  0.0000  0.0000  0.0000 </r>
        <r>  0.0002  0.0005  0.0003  0.0014  0.0000  0.0000  0.0000  0.0000  0.0000 </r>
        <r>  0.0024  0.0068  0.0034  0.0001  0.0000  0.0000  0.0000  0.0000  0.0000 </r>
        <r>  0.0122  0.0501  0.0044  0.0003  0.0000  0.0000  0.0000  0.0000  0.0000 </r>
        <r>  0.0009  0.0038  0.0003  0.0037  0.0000  0.0000  0.0000  0.0000  0.0000 </r>
        <r>  0.0118  0.0509  0.0020  0.0002  0.0000  0.0000  0.0000  0.0000  0.0000 </r>
        <r>  0.0009  0.0038  0.0002  0.0025  0.0000  0.0000  0.0000  0.0000  0.0000 </r>
       </set>
       <set comment="band 36">
        <r>  0.0009  0.0038  0.0002  0.0025  0.0000  0.0000  0.0000  0.0000  0.0000 </r>
        <r>  0.0118  0.0509  0.0020  0.0002  0.0000  0.0000  0.0000  0.0000  0.0000 </r>
        <r>  0.0009  0.0038  0.0003  0.0037  0.0000  0.0000  0.0000  0.0000  0.0000 </r>
        <r>  0.0122  0.0501  0.0044  0.0003  0.0000  0.0000  0.0000  0.0000  0.0000 </r>
        <r>  0.0024  0.0068  0.0034  0.0001  0.0000  0.0000  0.0000  0.0000  0.0000 </r>
        <r>  0.0002  0.0005  0.0003  0.0014  0.0000  0.0000  0.0000  0.0000  0.0000 </r>
        <r>  0.0024  0.0068  0.0034  0.0001  0.0000  0.0000  0.0000  0.0000  0.0000 </r>
        <r>  0.0002  0.0005  0.0003  0.0014  0.0000  0.0000  0.0000  0.0000  0.0000 </r>
        <r>  0.0009  0.0038  0.0003  0.0037  0.0000  0.0000  0.0000  0.0000  0.0000 </r>
        <r>  0.0122  0.0501  0.0044  0.0003  0.0000  0.0000  0.0000  0.0000  0.0000 </r>
        <r>  0.0009  0.0038  0.0002  0.0025  0.0000  0.0000  0.0000  0.0000  0.0000 </r>
        <r>  0.0118  0.0509  0.0020  0.0002  0.0000  0.0000  0.0000  0.0000  0.0000 </r>
       </set>
       <set comment="band 37">
        <r>  0.0002  0.0001  0.0036  0.0030  0.0000  0.0000  0.0000  0.0000  0.0000 </r>
        <r>  0.0003  0.0003  0.0064  0.0016  0.0000  0.0000  0.0000  0.0000  0.0000 </r>
        <r>  0.0002  0.0001  0.0038  0.0031  0.0000  0.0000  0.0000  0.0000  0.0000 </r>
        <r>  0.0003  0.0005  0.0069  0.0017  0.0000  0.0000  0.0000  0.0000  0.0000 </r>
        <r>  0.0046  0.0024  0.1073  0.0082  0.0000  0.0000  0.0000  0.0000  0.0000 </r>
        <r>  0.0007  0.0004  0.0181  0.0477  0.0000  0.0000  0.0000  0.0000  0.0000 </r>
        <r>  0.0044  0.0026  0.1050  0.0082  0.0000  0.0000  0.0000  0.0000  0.0000 </r>
        <r>  0.0008  0.0004  0.0187  0.0477  0.0000  0.0000  0.0000  0.0000  0.0000 </r>
        <r>  0.0005  0.0004  0.0104  0.0023  0.0000  0.0000  0.0000  0.0000  0.0000 </r>
        <r>  0.0002  0.0001  0.0064  0.0048  0.0000  0.0000  0.0000  0.0000  0.0000 </r>
        <r>  0.0005  0.0004  0.0099  0.0022  0.0000  0.0000  0.0000  0.0000  0.0000 </r>
        <r>  0.0001  0.0000  0.0046  0.0045  0.0000  0.0000  0.0000  0.0000  0.0000 </r>
       </set>
       <set comment="band 38">
        <r>  0.0010  0.0004  0.0268  0.0087  0.0000  0.0000  0.0000  0.0000  0.0000 </r>
        <r>  0.0008  0.0005  0.0184  0.0126  0.0000  0.0000  0.0000  0.0000  0.0000 </r>
        <r>  0.0013  0.0002  0.0329  0.0091  0.0000  0.0000  0.0000  0.0000  0.0000 </r>
        <r>  0.0009  0.0004  0.0212  0.0132  0.0000  0.0000  0.0000  0.0000  0.0000 </r>
        <r>  0.0006  0.0006  0.0125  0.0348  0.0000  0.0000  0.0000  0.0000  0.0000 </r>
        <r>  0.0034  0.0026  0.0751  0.0058  0.0000  0.0000  0.0000  0.0000  0.0000 </r>
        <r>  0.0006  0.0005  0.0128  0.0348  0.0000  0.0000  0.0000  0.0000  0.0000 </r>
        <r>  0.0036  0.0024  0.0780  0.0058  0.0000  0.0000  0.0000  0.0000  0.0000 </r>
        <r>  0.0003  0.0002  0.0090  0.0015  0.0000  0.0000  0.0000  0.0000  0.0000 </r>
        <r>  0.0001  0.0000  0.0039  0.0034  0.0000  0.0000  0.0000  0.0000  0.0000 </r>
        <r>  0.0002  0.0001  0.0069  0.0014  0.0000  0.0000  0.0000  0.0000  0.0000 </r>
        <r>  0.0001  0.0000  0.0030  0.0033  0.0000  0.0000  0.0000  0.0000  0.0000 </r>
       </set>
       <set comment="band 39">
        <r>  0.0013  0.0009  0.0274  0.0140  0.0000  0.0000  0.0000  0.0000  0.0000 </r>
        <r>  0.0015  0.0013  0.0312  0.0126  0.0000  0.0000  0.0000  0.0000  0.0000 </r>
        <r>  0.0014  0.0008  0.0296  0.0150  0.0000  0.0000  0.0000  0.0000  0.0000 </r>
        <r>  0.0018  0.0010  0.0321  0.0133  0.0000  0.0000  0.0000  0.0000  0.0000 </r>
        <r>  0.0000  0.0000  0.0001  0.0000  0.0000  0.0000  0.0000  0.0000  0.0000 </r>
        <r>  0.0000  0.0000  0.0000  0.0000  0.0000  0.0000  0.0000  0.0000  0.0000 </r>
        <r>  0.0000  0.0001  0.0001  0.0000  0.0000  0.0000  0.0000  0.0000  0.0000 </r>
        <r>  0.0000  0.0000  0.0001  0.0000  0.0000  0.0000  0.0000  0.0000  0.0000 </r>
        <r>  0.0005  0.0003  0.0099  0.0365  0.0000  0.0000  0.0000  0.0000  0.0000 </r>
        <r>  0.0039  0.0021  0.0807  0.0046  0.0000  0.0000  0.0000  0.0000  0.0000 </r>
        <r>  0.0005  0.0004  0.0096  0.0344  0.0000  0.0000  0.0000  0.0000  0.0000 </r>
        <r>  0.0036  0.0025  0.0750  0.0043  0.0000  0.0000  0.0000  0.0000  0.0000 </r>
       </set>
       <set comment="band 40">
        <r>  0.0012  0.0006  0.0261  0.0115  0.0000  0.0000  0.0000  0.0000  0.0000 </r>
        <r>  0.0011  0.0006  0.0243  0.0124  0.0000  0.0000  0.0000  0.0000  0.0000 </r>
        <r>  0.0011  0.0006  0.0302  0.0120  0.0000  0.0000  0.0000  0.0000  0.0000 </r>
        <r>  0.0011  0.0006  0.0281  0.0129  0.0000  0.0000  0.0000  0.0000  0.0000 </r>
        <r>  0.0000  0.0002  0.0001  0.0000  0.0000  0.0000  0.0000  0.0000  0.0000 </r>
        <r>  0.0000  0.0002  0.0001  0.0000  0.0000  0.0000  0.0000  0.0000  0.0000 </r>
        <r>  0.0000  0.0002  0.0002  0.0000  0.0000  0.0000  0.0000  0.0000  0.0000 </r>
        <r>  0.0000  0.0003  0.0001  0.0000  0.0000  0.0000  0.0000  0.0000  0.0000 </r>
        <r>  0.0027  0.0014  0.0644  0.0163  0.0000  0.0000  0.0000  0.0000  0.0000 </r>
        <r>  0.0015  0.0008  0.0376  0.0281  0.0000  0.0000  0.0000  0.0000  0.0000 </r>
        <r>  0.0026  0.0015  0.0569  0.0155  0.0000  0.0000  0.0000  0.0000  0.0000 </r>
        <r>  0.0015  0.0008  0.0329  0.0267  0.0000  0.0000  0.0000  0.0000  0.0000 </r>
       </set>
      </set>
     </set>
    </set>
   </array>
  </projected>
 </calculation>
 <structure name="finalpos" >
  <crystal>
   <varray name="basis" >
    <v>       3.34288600       0.00000000       0.00000000 </v>
    <v>       0.00000000      32.60240900       0.00000000 </v>
    <v>       0.00000000       0.00000000       4.37483100 </v>
   </varray>
   <i name="volume">    476.79592902 </i>
   <varray name="rec_basis" >
    <v>       0.29914272       0.00000000       0.00000000 </v>
    <v>       0.00000000       0.03067258       0.00000000 </v>
    <v>       0.00000000       0.00000000       0.22858026 </v>
   </varray>
  </crystal>
  <varray name="positions" >
   <v>       0.00000000       0.30672600       0.91892400 </v>
   <v>       0.50000000       0.30672600       0.58107600 </v>
   <v>       0.00000000       0.37246700       0.08107600 </v>
   <v>       0.50000000       0.37246700       0.41892400 </v>
   <v>       0.50000000       0.46712900       0.91892400 </v>
   <v>       0.00000000       0.46712900       0.58107600 </v>
   <v>       0.50000000       0.53287100       0.08107600 </v>
   <v>       0.00000000       0.53287100       0.41892400 </v>
   <v>       0.00000000       0.62753300       0.91892400 </v>
   <v>       0.50000000       0.62753300       0.58107600 </v>
   <v>       0.00000000       0.69327400       0.08107600 </v>
   <v>       0.50000000       0.69327400       0.41892400 </v>
  </varray>
 </structure>
</modeling>
